    -----------------------------------------------------------------------
          PSI4: An Open-Source Ab Initio Electronic Structure Package
                              PSI 4.0.0-beta5 Driver

    J. M. Turney, A. C. Simmonett, R. M. Parrish, E. G. Hohenstein,
    F. A. Evangelista, J. T. Fermann, B. J. Mintz, L. A. Burns, J. J. Wilke,
    M. L. Abrams, N. J. Russ, M. L. Leininger, C. L. Janssen, E. T. Seidl,
    W. D. Allen, H. F. Schaefer, R. A. King, E. F. Valeev, C. D. Sherrill,
    and T. D. Crawford, WIREs Comput. Mol. Sci., (2011) (doi: 10.1002/wcms.93)

                         Additional Contributions by
    A. E. DePrince, M. Saitow, U. Bozkaya, A. Yu. Sokolov
    -----------------------------------------------------------------------

    Process ID:  22826
    PSI4DATADIR: /usr/local/psi4/share/psi

    Using LocalCommunicator (Number of processes = 1)

    Memory level set to 256.000 MB

  ==> Input File <==

--------------------------------------------------------------------------

# PYTHONPATH must include directory above plugin directory.
#     Define either externally or here, then import plugin.
sys.path.insert(0, './..')
import aointegrals

molecule {
O
H 1 R
H 1 R 2 A

R = .9
A = 104.5
}

set {
  basis sto-3g
  PRINT_MOS = True
}

set aointegrals {
  print 1
}

energy('aointegrals')

aointegrals.exampleFN()

--------------------------------------------------------------------------
/Users/markstrother/cs294_rebuilt/final_proj/cs294-davidson/aointegrals/aointegrals.so loaded.

*** tstart() called on Marks-MacBook-Pro-3.local
*** at Fri Dec 20 19:25:36 2013

	There are an even number of electrons - assuming singlet.
	Specify the multiplicity with the MULTP option in the
	input if this is incorrect


         ---------------------------------------------------------
                                   SCF
            by Justin Turney, Rob Parrish, and Andy Simmonett
                              RHF Reference
                        1 Threads,    256 MiB Core
         ---------------------------------------------------------

  ==> Geometry <==

    Molecular point group: c2v
    Full point group: C2v

    Geometry (in Angstrom), charge = 0, multiplicity = 1:

       Center              X                  Y                   Z       
    ------------   -----------------  -----------------  -----------------
           O          0.000000000000     0.000000000000    -0.061664597379
           H          0.000000000000    -0.711620616369     0.489330954652
           H          0.000000000000     0.711620616369     0.489330954652

  Running in c2v symmetry.

  Nuclear repulsion =    9.779406144413407

  Charge       = 0
  Multiplicity = 1
  Electrons    = 10
  Nalpha       = 5
  Nbeta        = 5

  ==> Algorithm <==

  SCF Algorithm Type is PK.
  DIIS enabled.
  MOM disabled.
  Fractional occupation disabled.
  Guess Type is CORE.
  Energy threshold   = 1.00e-08
  Density threshold  = 1.00e-08
  Integral threshold = 0.00e+00

  ==> Primary Basis <==

  Basis Set: STO-3G
    Number of shells: 5
    Number of basis function: 7
    Number of Cartesian functions: 7
    Spherical Harmonics?: true
    Max angular momentum: 1

  ==> Pre-Iterations <==

   -------------------------------------------------------
    Irrep   Nso     Nmo     Nalpha   Nbeta   Ndocc  Nsocc
   -------------------------------------------------------
     A1         4       4       0       0       0       0
     A2         0       0       0       0       0       0
     B1         1       1       0       0       0       0
     B2         2       2       0       0       0       0
   -------------------------------------------------------
    Total       7       7       5       5       5       0
   -------------------------------------------------------

  Starting with a DF guess...

 OEINTS: Wrapper to libmints.
   by Justin Turney

   Calculation information:
      Number of atoms:                   3
      Number of AO shells:               5
      Number of SO shells:               4
      Number of primitives:             15
      Number of atomic orbitals:         7
      Number of basis functions:         7

      Number of irreps:                  4
      Number of functions per irrep: [   4    0    1    2 ]

      Overlap, kinetic, potential, dipole, and quadrupole integrals
        stored in file 35.

  ==> Integral Setup <==

  ==> DFJK: Density-Fitted J/K Matrices <==

    J tasked:                  Yes
    K tasked:                  Yes
    wK tasked:                  No
    OpenMP threads:              1
    Integrals threads:           1
    Memory (MB):               183
    Algorithm:                Core
    Integral Cache:           NONE
    Schwarz Cutoff:          1E-12
    Fitting Condition:       1E-12

   => Auxiliary Basis Set <=

  Basis Set: CC-PVDZ-JKFIT
    Number of shells: 42
    Number of basis function: 116
    Number of Cartesian functions: 131
    Spherical Harmonics?: true
    Max angular momentum: 3

  Minimum eigenvalue in the overlap matrix is 3.0451397022E-01.
  Using Symmetric Orthogonalization.
  SCF Guess: Core (One-Electron) Hamiltonian.

  ==> Iterations <==

                           Total Energy        Delta E     RMS |[F,P]|

   @DF-RHF iter   1:   -73.19700007804599   -7.31970e+01   2.46163e-01 
   @DF-RHF iter   2:   -74.93914529148194   -1.74215e+00   1.91119e-02 DIIS
   @DF-RHF iter   3:   -74.94460396321236   -5.45867e-03   4.48157e-03 DIIS
   @DF-RHF iter   4:   -74.94503022571695   -4.26263e-04   8.44127e-04 DIIS
   @DF-RHF iter   5:   -74.94505038727542   -2.01616e-05   1.60329e-04 DIIS
   @DF-RHF iter   6:   -74.94505106082536   -6.73550e-07   1.07647e-05 DIIS
   @DF-RHF iter   7:   -74.94505106261747   -1.79210e-09   4.99723e-08 DIIS
   @DF-RHF iter   8:   -74.94505106261747    0.00000e+00   5.08050e-10 DIIS

  DF guess converged.

  ==> Integral Setup <==

 MINTS: Wrapper to libmints.
   by Justin Turney

   Calculation information:
      Number of atoms:                   3
      Number of AO shells:               5
      Number of SO shells:               4
      Number of primitives:             15
      Number of atomic orbitals:         7
      Number of basis functions:         7

      Number of irreps:                  4
      Integral cutoff                 0.00e+00
      Number of functions per irrep: [   4    0    1    2 ]

      Overlap, kinetic, potential, dipole, and quadrupole integrals
        stored in file 35.

      Computing two-electron integrals...done
      Computed 138 non-zero two-electron integrals.
        Stored in file 33.

	Batch   1 pq = [       0,      14] index = [             0,105]
  ==> DiskJK: Disk-Based J/K Matrices <==

    J tasked:                  Yes
    K tasked:                  Yes
    wK tasked:                  No
    Memory (MB):               183
    Schwarz Cutoff:          1E-12

   @RHF iter   9:   -74.94502101037961    3.00522e-05   2.71425e-06 DIIS
   @RHF iter  10:   -74.94502101052157   -1.41966e-10   8.38641e-07 DIIS
   @RHF iter  11:   -74.94502101053737   -1.58025e-11   1.48869e-07 DIIS
   @RHF iter  12:   -74.94502101053803   -6.53699e-13   3.74363e-08 DIIS
   @RHF iter  13:   -74.94502101053811   -8.52651e-14   4.11745e-10 DIIS

  ==> Post-Iterations <==

	Orbital Energies (a.u.)
	-----------------------

	Doubly Occupied:                                                      

	   1A1   -20.236192     2A1    -1.300480     1B2    -0.649309  
	   3A1    -0.460194     1B1    -0.396298  

	Virtual:                                                              

	   4A1     0.664827     2B2     0.813314  

	Final Occupation by Irrep:
	         A1    A2    B1    B2 
	DOCC [     3,    0,    1,    1 ]

  Energy converged.

  @RHF Final Energy:   -74.94502101053811

   => Energetics <=

    Nuclear Repulsion Energy =              9.7794061444134073
    One-Electron Energy =                -123.3639077707138227
    Two-Electron Energy =                  38.6394806157623094
    DFT Exchange-Correlation Energy =       0.0000000000000000
    Empirical Dispersion Energy =           0.0000000000000000
    Total Energy =                        -74.9450210105380989



Properties will be evaluated at   0.000000,   0.000000,   0.000000 Bohr
  ==> Properties <==


Properties computed using the SCF density density matrix
  Nuclear Dipole Moment: (a.u.)
     X:     0.0000      Y:     0.0000      Z:     0.9172

  Electronic Dipole Moment: (a.u.)
     X:     0.0000      Y:     0.0000      Z:    -0.2095

  Dipole Moment: (a.u.)
     X:     0.0000      Y:     0.0000      Z:     0.7076     Total:     0.7076

  Dipole Moment: (Debye)
     X:     0.0000      Y:     0.0000      Z:     1.7986     Total:     1.7986


  Saving occupied orbitals to File 180.

  ==> Molecular Orbitals <==

                 1            2            3            4            5

    1    0.9939850    0.2308056    0.0000000    0.1057316    0.0000000
    2    0.0278980   -0.8130716    0.0000000   -0.5527372    0.0000000
    3    0.0049481   -0.1506567    0.0000000    0.7898959    0.0000000
    4    0.0000000    0.0000000    0.0000000    0.0000000    1.0000000
    5    0.0000000    0.0000000    0.6098497    0.0000000    0.0000000
    6   -0.0066608   -0.1614406   -0.4407979    0.2538687    0.0000000
    7   -0.0066608   -0.1614406    0.4407979    0.2538687    0.0000000

 Ene   -20.2361917   -1.3004803   -0.6493088   -0.4601941   -0.3962984
 Sym            A1           A1           B2           A1           B1
 Occ             2            2            2            2            2


                 6            7

    1    0.1403002    0.0000000
    2   -0.9922195    0.0000000
    3   -0.7466766    0.0000000
    4    0.0000000    0.0000000
    5    0.0000000    1.0260634
    6    0.8424919    0.8965343
    7    0.8424919   -0.8965343

 Ene     0.6648269    0.8133140
 Sym            A1           B2
 Occ             0            0


*** tstop() called on Marks-MacBook-Pro-3.local at Fri Dec 20 19:25:36 2013
Module time:
	user time   =       0.06 seconds =       0.00 minutes
	system time =       0.01 seconds =       0.00 minutes
	total time  =          0 seconds =       0.00 minutes
Total time:
	user time   =       0.06 seconds =       0.00 minutes
	system time =       0.01 seconds =       0.00 minutes
	total time  =          0 seconds =       0.00 minutes
Reading options from the AOINTEGRALS block
Calling plugin aointegrals.so.
    Molecular point group: c2v
    Full point group: C2v

    Geometry (in Angstrom), charge = 0, multiplicity = 1:

       Center              X                  Y                   Z       
    ------------   -----------------  -----------------  -----------------
           O          0.000000000000     0.000000000000    -0.061664597379
           H          0.000000000000    -0.711620616369     0.489330954652
           H          0.000000000000     0.711620616369     0.489330954652


    Nuclear repulsion energy:       9.77940614

  ## Overlap (Symmetry 0) ##
  Irrep: 1 Size: 7 x 7

                 1            2            3            4            5

    1    1.0000000    0.2367039    0.0000000    0.0000000    0.0000000
    2    0.2367039    1.0000000    0.0000000    0.0000000    0.0000000
    3    0.0000000    0.0000000    1.0000000    0.0000000    0.0000000
    4    0.0000000    0.0000000    0.0000000    1.0000000    0.0000000
    5    0.0000000    0.0000000    0.0000000    0.0000000    1.0000000
    6    0.0617833    0.5130493    0.2525460    0.0000000   -0.3261677
    7    0.0617833    0.5130493    0.2525460    0.0000000    0.3261677

                 6            7

    1    0.0617833    0.0617833
    2    0.5130493    0.5130493
    3    0.2525460    0.2525460
    4    0.0000000    0.0000000
    5   -0.3261677    0.3261677
    6    1.0000000    0.2862658
    7    0.2862658    1.0000000



  ## Kinetic (Symmetry 0) ##
  Irrep: 1 Size: 7 x 7

                 1            2            3            4            5

    1   29.0031999   -0.1680109    0.0000000    0.0000000    0.0000000
    2   -0.1680109    0.8081280    0.0000000    0.0000000    0.0000000
    3    0.0000000    0.0000000    2.5287312    0.0000000    0.0000000
    4    0.0000000    0.0000000    0.0000000    2.5287312    0.0000000
    5    0.0000000    0.0000000    0.0000000    0.0000000    2.5287312
    6    0.0022254    0.1579481    0.2021141    0.0000000   -0.2610340
    7    0.0022254    0.1579481    0.2021141    0.0000000    0.2610340

                 6            7

    1    0.0022254    0.0022254
    2    0.1579481    0.1579481
    3    0.2021141    0.2021141
    4    0.0000000    0.0000000
    5   -0.2610340    0.2610340
    6    0.7600319    0.0170890
    7    0.0170890    0.7600319



  ## Potential (Symmetry 0) ##
  Irrep: 1 Size: 7 x 7

                 1            2            3            4            5

    1  -61.7944043   -7.4614313   -0.0215004    0.0000000    0.0000000
    2   -7.4614313  -10.2056791   -0.2467923    0.0000000    0.0000000
    3   -0.0215004   -0.2467923  -10.1444853    0.0000000    0.0000000
    4    0.0000000    0.0000000    0.0000000  -10.0374513    0.0000000
    5    0.0000000    0.0000000    0.0000000    0.0000000  -10.2159860
    6   -2.0086639   -4.2817527   -1.9677455    0.0000000    2.4294808
    7   -2.0086639   -4.2817527   -1.9677455    0.0000000   -2.4294808

                 6            7

    1   -2.0086639   -2.0086639
    2   -4.2817527   -4.2817527
    3   -1.9677455   -1.9677455
    4    0.0000000    0.0000000
    5    2.4294808   -2.4294808
    6   -6.0861092   -1.9096774
    7   -1.9096774   -6.0861092



  ## One Electron Ints (Symmetry 0) ##
  Irrep: 1 Size: 7 x 7

                 1            2            3            4            5

    1  -32.7912043   -7.6294422   -0.0215004    0.0000000    0.0000000
    2   -7.6294422   -9.3975512   -0.2467923    0.0000000    0.0000000
    3   -0.0215004   -0.2467923   -7.6157541    0.0000000    0.0000000
    4    0.0000000    0.0000000    0.0000000   -7.5087201    0.0000000
    5    0.0000000    0.0000000    0.0000000    0.0000000   -7.6872548
    6   -2.0064385   -4.1238046   -1.7656314    0.0000000    2.1684469
    7   -2.0064385   -4.1238046   -1.7656314    0.0000000   -2.1684469

                 6            7

    1   -2.0064385   -2.0064385
    2   -4.1238046   -4.1238046
    3   -1.7656314   -1.7656314
    4    0.0000000    0.0000000
    5    2.1684469   -2.1684469
    6   -5.3260773   -1.8925884
    7   -1.8925884   -5.3260773




  Two-electron Integrals

	( 0  0 |  0  0) =    4.785065404705503
	( 1  0 |  0  0) =    0.741380351973408
	( 1  1 |  0  0) =    1.118946866342470
	( 1  0 |  1  0) =    0.136873385354388
	( 1  1 |  1  0) =    0.256633394730974
	( 1  1 |  1  1) =    0.817206321526059
	( 2  0 |  0  0) =    0.000000000000000
	( 3  0 |  0  0) =    0.000000000000000
	( 4  0 |  0  0) =    0.000000000000000
	( 2  1 |  0  0) =    0.000000000000000
	( 3  1 |  0  0) =    0.000000000000000
	( 4  1 |  0  0) =    0.000000000000000
	( 2  0 |  1  0) =    0.000000000000000
	( 3  0 |  1  0) =    0.000000000000000
	( 4  0 |  1  0) =    0.000000000000000
	( 2  1 |  1  0) =    0.000000000000000
	( 3  1 |  1  0) =    0.000000000000000
	( 4  1 |  1  0) =    0.000000000000000
	( 2  0 |  1  1) =    0.000000000000000
	( 3  0 |  1  1) =    0.000000000000000
	( 4  0 |  1  1) =    0.000000000000000
	( 2  1 |  1  1) =    0.000000000000000
	( 3  1 |  1  1) =    0.000000000000000
	( 4  1 |  1  1) =    0.000000000000000
	( 2  2 |  0  0) =    1.115813812152427
	( 3  2 |  0  0) =    0.000000000000000
	( 3  3 |  0  0) =    1.115813812152427
	( 4  2 |  0  0) =    0.000000000000000
	( 4  3 |  0  0) =    0.000000000000000
	( 4  4 |  0  0) =    1.115813812152427
	( 2  0 |  2  0) =    0.024477412258099
	( 3  0 |  2  0) =    0.000000000000000
	( 3  0 |  3  0) =    0.024477412258099
	( 4  0 |  2  0) =    0.000000000000000
	( 4  0 |  3  0) =    0.000000000000000
	( 4  0 |  4  0) =    0.024477412258099
	( 2  2 |  1  0) =    0.256683985810103
	( 3  2 |  1  0) =    0.000000000000000
	( 3  3 |  1  0) =    0.256683985810103
	( 4  2 |  1  0) =    0.000000000000000
	( 4  3 |  1  0) =    0.000000000000000
	( 4  4 |  1  0) =    0.256683985810103
	( 2  1 |  2  0) =    0.037808607416361
	( 3  0 |  2  1) =    0.000000000000000
	( 4  0 |  2  1) =    0.000000000000000
	( 3  1 |  2  0) =    0.000000000000000
	( 3  1 |  3  0) =    0.037808607416361
	( 4  0 |  3  1) =    0.000000000000000
	( 4  1 |  2  0) =    0.000000000000000
	( 4  1 |  3  0) =    0.000000000000000
	( 4  1 |  4  0) =    0.037808607416361
	( 2  2 |  1  1) =    0.817022605320914
	( 3  2 |  1  1) =    0.000000000000000
	( 3  3 |  1  1) =    0.817022605320914
	( 4  2 |  1  1) =    0.000000000000000
	( 4  3 |  1  1) =    0.000000000000000
	( 4  4 |  1  1) =    0.817022605320914
	( 2  1 |  2  1) =    0.180518392104632
	( 3  1 |  2  1) =    0.000000000000000
	( 3  1 |  3  1) =    0.180518392104632
	( 4  1 |  2  1) =    0.000000000000000
	( 4  1 |  3  1) =    0.000000000000000
	( 4  1 |  4  1) =    0.180518392104632
	( 2  2 |  2  0) =    0.000000000000000
	( 3  2 |  2  0) =    0.000000000000000
	( 3  3 |  2  0) =    0.000000000000000
	( 4  2 |  2  0) =    0.000000000000000
	( 4  3 |  2  0) =    0.000000000000000
	( 4  4 |  2  0) =    0.000000000000000
	( 3  0 |  2  2) =    0.000000000000000
	( 3  2 |  3  0) =    0.000000000000000
	( 3  3 |  3  0) =    0.000000000000000
	( 4  2 |  3  0) =    0.000000000000000
	( 4  3 |  3  0) =    0.000000000000000
	( 4  4 |  3  0) =    0.000000000000000
	( 4  0 |  2  2) =    0.000000000000000
	( 4  0 |  3  2) =    0.000000000000000
	( 4  0 |  3  3) =    0.000000000000000
	( 4  2 |  4  0) =    0.000000000000000
	( 4  3 |  4  0) =    0.000000000000000
	( 4  4 |  4  0) =    0.000000000000000
	( 2  2 |  2  1) =    0.000000000000000
	( 3  2 |  2  1) =    0.000000000000000
	( 3  3 |  2  1) =    0.000000000000000
	( 4  2 |  2  1) =    0.000000000000000
	( 4  3 |  2  1) =    0.000000000000000
	( 4  4 |  2  1) =    0.000000000000000
	( 3  1 |  2  2) =    0.000000000000000
	( 3  2 |  3  1) =    0.000000000000000
	( 3  3 |  3  1) =    0.000000000000000
	( 4  2 |  3  1) =    0.000000000000000
	( 4  3 |  3  1) =    0.000000000000000
	( 4  4 |  3  1) =    0.000000000000000
	( 4  1 |  2  2) =    0.000000000000000
	( 4  1 |  3  2) =    0.000000000000000
	( 4  1 |  3  3) =    0.000000000000000
	( 4  2 |  4  1) =    0.000000000000000
	( 4  3 |  4  1) =    0.000000000000000
	( 4  4 |  4  1) =    0.000000000000000
	( 2  2 |  2  2) =    0.880159093375045
	( 3  2 |  2  2) =    0.000000000000000
	( 3  2 |  3  2) =    0.047444445118384
	( 3  3 |  2  2) =    0.785270203138277
	( 3  3 |  3  2) =    0.000000000000000
	( 3  3 |  3  3) =    0.880159093375045
	( 4  2 |  2  2) =    0.000000000000000
	( 4  2 |  3  2) =    0.000000000000000
	( 4  2 |  3  3) =    0.000000000000000
	( 4  2 |  4  2) =    0.047444445118384
	( 4  3 |  2  2) =    0.000000000000000
	( 4  3 |  3  2) =    0.000000000000000
	( 4  3 |  3  3) =    0.000000000000000
	( 4  3 |  4  2) =    0.000000000000000
	( 4  3 |  4  3) =    0.047444445118384
	( 4  4 |  2  2) =    0.785270203138277
	( 4  4 |  3  2) =    0.000000000000000
	( 4  4 |  3  3) =    0.785270203138277
	( 4  4 |  4  2) =    0.000000000000000
	( 4  4 |  4  3) =    0.000000000000000
	( 4  4 |  4  4) =    0.880159093375045
	( 5  0 |  0  0) =    0.196989249709503
	( 5  1 |  0  0) =    0.444893704631715
	( 5  0 |  1  0) =    0.036024085068876
	( 5  1 |  1  0) =    0.103164766449675
	( 5  0 |  1  1) =    0.066987722568492
	( 5  1 |  1  1) =    0.359732524850059
	( 5  2 |  0  0) =    0.186915884422918
	( 5  3 |  0  0) =    0.000000000000000
	( 5  4 |  0  0) =   -0.241405209882339
	( 5  0 |  2  0) =    0.001003850121853
	( 5  0 |  3  0) =    0.000000000000000
	( 5  0 |  4  0) =   -0.001296490397831
	( 5  2 |  1  0) =    0.043937065835859
	( 5  3 |  1  0) =    0.000000000000000
	( 5  4 |  1  0) =   -0.056745506849065
	( 5  1 |  2  0) =    0.004687753167900
	( 5  1 |  3  0) =    0.000000000000000
	( 5  1 |  4  0) =   -0.006054317110969
	( 5  0 |  2  1) =    0.001869406232456
	( 5  0 |  3  1) =    0.000000000000000
	( 5  0 |  4  1) =   -0.002414371605146
	( 5  2 |  1  1) =    0.163693540107671
	( 5  3 |  1  1) =    0.000000000000000
	( 5  4 |  1  1) =   -0.211413136599267
	( 5  1 |  2  1) =    0.034713086601058
	( 5  1 |  3  1) =    0.000000000000000
	( 5  1 |  4  1) =   -0.044832572589880
	( 5  2 |  2  0) =    0.012972282224381
	( 5  2 |  3  0) =    0.000000000000000
	( 5  2 |  4  0) =   -0.002284822670882
	( 5  3 |  2  0) =    0.000000000000000
	( 5  3 |  3  0) =    0.011203183494136
	( 5  3 |  4  0) =    0.000000000000000
	( 5  4 |  2  0) =   -0.002284822670882
	( 5  4 |  3  0) =    0.000000000000000
	( 5  4 |  4  0) =    0.014154072864031
	( 5  0 |  2  2) =    0.067005967597151
	( 5  0 |  3  2) =    0.000000000000000
	( 5  0 |  3  3) =    0.066863964093063
	( 5  0 |  4  2) =   -0.000183400066903
	( 5  0 |  4  3) =    0.000000000000000
	( 5  0 |  4  4) =    0.067100828561698
	( 5  2 |  2  1) =    0.078847091805890
	( 5  2 |  3  1) =    0.000000000000000
	( 5  2 |  4  1) =   -0.019551319579413
	( 5  3 |  2  1) =    0.000000000000000
	( 5  3 |  3  1) =    0.063708842749035
	( 5  3 |  4  1) =    0.000000000000000
	( 5  4 |  2  1) =   -0.019551319579413
	( 5  4 |  3  1) =    0.000000000000000
	( 5  4 |  4  1) =    0.088959721887085
	( 5  1 |  2  2) =    0.360331241600179
	( 5  1 |  3  2) =    0.000000000000000
	( 5  1 |  3  3) =    0.353930575183423
	( 5  1 |  4  2) =   -0.008266575227110
	( 5  1 |  4  3) =    0.000000000000000
	( 5  1 |  4  4) =    0.364607005032442
	( 5  2 |  2  2) =    0.173750168821052
	( 5  2 |  3  2) =    0.000000000000000
	( 5  2 |  3  3) =    0.156146515876205
	( 5  2 |  4  2) =   -0.013249429622447
	( 5  2 |  4  3) =    0.000000000000000
	( 5  2 |  4  4) =    0.161007048452460
	( 5  3 |  2  2) =    0.000000000000000
	( 5  3 |  3  2) =    0.007344848434431
	( 5  3 |  3  3) =    0.000000000000000
	( 5  3 |  4  2) =    0.000000000000000
	( 5  3 |  4  3) =   -0.009486003200541
	( 5  3 |  4  4) =    0.000000000000000
	( 5  4 |  2  2) =   -0.205429446160512
	( 5  4 |  3  2) =    0.000000000000000
	( 5  4 |  3  3) =   -0.201666019738606
	( 5  4 |  4  2) =    0.012205381010686
	( 5  4 |  4  3) =    0.000000000000000
	( 5  4 |  4  4) =   -0.226915490948702
	( 5  5 |  0  0) =    0.560230046380319
	( 5  0 |  5  0) =    0.009602115418274
	( 5  5 |  1  0) =    0.132009310329941
	( 5  1 |  5  0) =    0.027603422939005
	( 5  5 |  1  1) =    0.524260432408376
	( 5  1 |  5  1) =    0.190557333244081
	( 5  5 |  2  0) =    0.008291410528086
	( 5  5 |  3  0) =    0.000000000000000
	( 5  5 |  4  0) =   -0.010708505084696
	( 5  2 |  5  0) =    0.012314281305233
	( 5  3 |  5  0) =    0.000000000000000
	( 5  4 |  5  0) =   -0.015904114688904
	( 5  5 |  2  1) =    0.082398848267720
	( 5  5 |  3  1) =    0.000000000000000
	( 5  5 |  4  1) =   -0.106419587193162
	( 5  2 |  5  1) =    0.105340723615587
	( 5  3 |  5  1) =    0.000000000000000
	( 5  4 |  5  1) =   -0.136049429785435
	( 5  5 |  2  2) =    0.526687645945478
	( 5  5 |  3  2) =    0.000000000000000
	( 5  5 |  3  3) =    0.502899429708512
	( 5  5 |  4  2) =   -0.030722906997128
	( 5  5 |  4  3) =    0.000000000000000
	( 5  5 |  4  4) =    0.542578613929454
	( 5  2 |  5  2) =    0.085915338608171
	( 5  3 |  5  2) =    0.000000000000000
	( 5  3 |  5  3) =    0.028285255593085
	( 5  4 |  5  2) =   -0.074430283593852
	( 5  4 |  5  3) =    0.000000000000000
	( 5  4 |  5  4) =    0.124413298900103
	( 5  5 |  5  0) =    0.035698177195732
	( 5  5 |  5  1) =    0.338202301272807
	( 5  5 |  5  2) =    0.213813253561476
	( 5  5 |  5  3) =    0.000000000000000
	( 5  5 |  5  4) =   -0.276143643494993
	( 5  5 |  5  5) =    0.774605943919898
	( 6  0 |  0  0) =    0.196989249709503
	( 6  1 |  0  0) =    0.444893704631715
	( 6  0 |  1  0) =    0.036024085068876
	( 6  1 |  1  0) =    0.103164766449675
	( 6  0 |  1  1) =    0.066987722568492
	( 6  1 |  1  1) =    0.359732524850059
	( 6  2 |  0  0) =    0.186915884422918
	( 6  3 |  0  0) =    0.000000000000000
	( 6  4 |  0  0) =    0.241405209882339
	( 6  0 |  2  0) =    0.001003850121853
	( 6  0 |  3  0) =    0.000000000000000
	( 6  0 |  4  0) =    0.001296490397831
	( 6  2 |  1  0) =    0.043937065835859
	( 6  3 |  1  0) =    0.000000000000000
	( 6  4 |  1  0) =    0.056745506849065
	( 6  1 |  2  0) =    0.004687753167900
	( 6  1 |  3  0) =    0.000000000000000
	( 6  1 |  4  0) =    0.006054317110969
	( 6  0 |  2  1) =    0.001869406232456
	( 6  0 |  3  1) =    0.000000000000000
	( 6  0 |  4  1) =    0.002414371605146
	( 6  2 |  1  1) =    0.163693540107671
	( 6  3 |  1  1) =    0.000000000000000
	( 6  4 |  1  1) =    0.211413136599267
	( 6  1 |  2  1) =    0.034713086601058
	( 6  1 |  3  1) =    0.000000000000000
	( 6  1 |  4  1) =    0.044832572589880
	( 6  2 |  2  0) =    0.012972282224381
	( 6  2 |  3  0) =    0.000000000000000
	( 6  2 |  4  0) =    0.002284822670882
	( 6  3 |  2  0) =    0.000000000000000
	( 6  3 |  3  0) =    0.011203183494136
	( 6  3 |  4  0) =    0.000000000000000
	( 6  4 |  2  0) =    0.002284822670882
	( 6  4 |  3  0) =    0.000000000000000
	( 6  4 |  4  0) =    0.014154072864031
	( 6  0 |  2  2) =    0.067005967597151
	( 6  0 |  3  2) =    0.000000000000000
	( 6  0 |  3  3) =    0.066863964093063
	( 6  0 |  4  2) =    0.000183400066903
	( 6  0 |  4  3) =    0.000000000000000
	( 6  0 |  4  4) =    0.067100828561698
	( 6  2 |  2  1) =    0.078847091805890
	( 6  2 |  3  1) =    0.000000000000000
	( 6  2 |  4  1) =    0.019551319579413
	( 6  3 |  2  1) =    0.000000000000000
	( 6  3 |  3  1) =    0.063708842749035
	( 6  3 |  4  1) =    0.000000000000000
	( 6  4 |  2  1) =    0.019551319579413
	( 6  4 |  3  1) =    0.000000000000000
	( 6  4 |  4  1) =    0.088959721887085
	( 6  1 |  2  2) =    0.360331241600179
	( 6  1 |  3  2) =    0.000000000000000
	( 6  1 |  3  3) =    0.353930575183423
	( 6  1 |  4  2) =    0.008266575227110
	( 6  1 |  4  3) =    0.000000000000000
	( 6  1 |  4  4) =    0.364607005032442
	( 6  2 |  2  2) =    0.173750168821052
	( 6  2 |  3  2) =    0.000000000000000
	( 6  2 |  3  3) =    0.156146515876205
	( 6  2 |  4  2) =    0.013249429622447
	( 6  2 |  4  3) =    0.000000000000000
	( 6  2 |  4  4) =    0.161007048452460
	( 6  3 |  2  2) =    0.000000000000000
	( 6  3 |  3  2) =    0.007344848434431
	( 6  3 |  3  3) =    0.000000000000000
	( 6  3 |  4  2) =    0.000000000000000
	( 6  3 |  4  3) =    0.009486003200541
	( 6  3 |  4  4) =    0.000000000000000
	( 6  4 |  2  2) =    0.205429446160512
	( 6  4 |  3  2) =    0.000000000000000
	( 6  4 |  3  3) =    0.201666019738606
	( 6  4 |  4  2) =    0.012205381010686
	( 6  4 |  4  3) =    0.000000000000000
	( 6  4 |  4  4) =    0.226915490948702
	( 6  5 |  0  0) =    0.189978351281821
	( 6  0 |  5  0) =    0.009456726803502
	( 6  5 |  1  0) =    0.044418304770903
	( 6  1 |  5  0) =    0.026756837912470
	( 6  0 |  5  1) =    0.026756837912470
	( 6  5 |  1  1) =    0.166748207183066
	( 6  1 |  5  1) =    0.157774859147314
	( 6  5 |  2  0) =    0.003246904342251
	( 6  5 |  3  0) =    0.000000000000000
	( 6  5 |  4  0) =    0.000000000000000
	( 6  2 |  5  0) =    0.011940511731215
	( 6  3 |  5  0) =    0.000000000000000
	( 6  4 |  5  0) =    0.013994726032520
	( 6  0 |  5  2) =    0.011940511731215
	( 6  0 |  5  3) =    0.000000000000000
	( 6  0 |  5  4) =   -0.013994726032520
	( 6  5 |  2  1) =    0.027972791485262
	( 6  5 |  3  1) =    0.000000000000000
	( 6  5 |  4  1) =   -0.000000000000000
	( 6  2 |  5  1) =    0.084883088633399
	( 6  3 |  5  1) =    0.000000000000000
	( 6  4 |  5  1) =    0.076923409894626
	( 6  1 |  5  2) =    0.084883088633399
	( 6  1 |  5  3) =    0.000000000000000
	( 6  1 |  5  4) =   -0.076923409894626
	( 6  5 |  2  2) =    0.170793662457047
	( 6  5 |  3  2) =    0.000000000000000
	( 6  5 |  3  3) =    0.163025689710797
	( 6  5 |  4  2) =   -0.000000000000000
	( 6  5 |  4  3) =    0.000000000000000
	( 6  5 |  4  4) =    0.166251925769566
	( 6  2 |  5  2) =    0.067722571870617
	( 6  2 |  5  3) =    0.000000000000000
	( 6  2 |  5  4) =   -0.040356808899469
	( 6  3 |  5  2) =    0.000000000000000
	( 6  3 |  5  3) =    0.022749110966692
	( 6  3 |  5  4) =    0.000000000000000
	( 6  4 |  5  2) =    0.040356808899469
	( 6  4 |  5  3) =    0.000000000000000
	( 6  4 |  5  4) =   -0.015073648324181
	( 6  5 |  5  0) =    0.011767347153954
	( 6  0 |  5  5) =    0.034138467250315
	( 6  5 |  5  1) =    0.087008812494567
	( 6  1 |  5  5) =    0.234232586386161
	( 6  5 |  5  2) =    0.054076511363435
	( 6  5 |  5  3) =    0.000000000000000
	( 6  5 |  5  4) =   -0.053267540625645
	( 6  2 |  5  5) =    0.138781445367287
	( 6  3 |  5  5) =    0.000000000000000
	( 6  4 |  5  5) =    0.098731697495619
	( 6  5 |  5  5) =    0.156920256734736
	( 6  6 |  0  0) =    0.560230046380319
	( 6  0 |  6  0) =    0.009602115418274
	( 6  6 |  1  0) =    0.132009310329941
	( 6  1 |  6  0) =    0.027603422939005
	( 6  6 |  1  1) =    0.524260432408376
	( 6  1 |  6  1) =    0.190557333244081
	( 6  6 |  2  0) =    0.008291410528086
	( 6  6 |  3  0) =    0.000000000000000
	( 6  6 |  4  0) =    0.010708505084696
	( 6  2 |  6  0) =    0.012314281305233
	( 6  3 |  6  0) =    0.000000000000000
	( 6  4 |  6  0) =    0.015904114688904
	( 6  6 |  2  1) =    0.082398848267720
	( 6  6 |  3  1) =    0.000000000000000
	( 6  6 |  4  1) =    0.106419587193162
	( 6  2 |  6  1) =    0.105340723615587
	( 6  3 |  6  1) =    0.000000000000000
	( 6  4 |  6  1) =    0.136049429785435
	( 6  6 |  2  2) =    0.526687645945478
	( 6  6 |  3  2) =    0.000000000000000
	( 6  6 |  3  3) =    0.502899429708512
	( 6  6 |  4  2) =    0.030722906997128
	( 6  6 |  4  3) =    0.000000000000000
	( 6  6 |  4  4) =    0.542578613929454
	( 6  2 |  6  2) =    0.085915338608171
	( 6  3 |  6  2) =    0.000000000000000
	( 6  3 |  6  3) =    0.028285255593085
	( 6  4 |  6  2) =    0.074430283593852
	( 6  4 |  6  3) =    0.000000000000000
	( 6  4 |  6  4) =    0.124413298900103
	( 6  6 |  5  0) =    0.034138467250315
	( 6  5 |  6  0) =    0.011767347153954
	( 6  6 |  5  1) =    0.234232586386161
	( 6  5 |  6  1) =    0.087008812494567
	( 6  6 |  5  2) =    0.138781445367287
	( 6  6 |  5  3) =    0.000000000000000
	( 6  6 |  5  4) =   -0.098731697495619
	( 6  5 |  6  2) =    0.054076511363435
	( 6  5 |  6  3) =    0.000000000000000
	( 6  5 |  6  4) =    0.053267540625645
	( 6  6 |  5  5) =    0.362315435522326
	( 6  5 |  6  5) =    0.047325268651739
	( 6  6 |  6  0) =    0.035698177195732
	( 6  6 |  6  1) =    0.338202301272807
	( 6  6 |  6  2) =    0.213813253561476
	( 6  6 |  6  3) =    0.000000000000000
	( 6  6 |  6  4) =    0.276143643494993
	( 6  6 |  6  5) =    0.156920256734736
	( 6  6 |  6  6) =    0.774605943919898

	There are 406 unique integrals


*** PSI4 exiting successfully. Buy a developer a beer!
