    -----------------------------------------------------------------------
          PSI4: An Open-Source Ab Initio Electronic Structure Package
                              PSI 4.0.0-beta5 Driver

    J. M. Turney, A. C. Simmonett, R. M. Parrish, E. G. Hohenstein,
    F. A. Evangelista, J. T. Fermann, B. J. Mintz, L. A. Burns, J. J. Wilke,
    M. L. Abrams, N. J. Russ, M. L. Leininger, C. L. Janssen, E. T. Seidl,
    W. D. Allen, H. F. Schaefer, R. A. King, E. F. Valeev, C. D. Sherrill,
    and T. D. Crawford, WIREs Comput. Mol. Sci., (2011) (doi: 10.1002/wcms.93)

                         Additional Contributions by
    A. E. DePrince, M. Saitow, U. Bozkaya, A. Yu. Sokolov
    -----------------------------------------------------------------------

    Process ID:  17728
    PSI4DATADIR: /usr/local/psi4/share/psi

    Using LocalCommunicator (Number of processes = 1)

    Memory level set to 256.000 MB

  ==> Input File <==

--------------------------------------------------------------------------
#! RHF-CCSD 6-31G** all-electron optimization of the H2O molecule

memory 250 mb

molecule h2o {
    O
    H 1 0.97
    H 1 0.97 2 103.0
}

set {
    basis 6-31G**
    PRINT_TEI = true
}



optimize('ccsd')

refnuc   =   9.1654609427539  #TEST
refscf   = -76.0229427274435  #TEST
refccsd  = -0.20823570806196  #TEST
reftotal = -76.2311784355056  #TEST

compare_values(refnuc,   h2o.nuclear_repulsion_energy(),          3, "Nuclear repulsion energy") #TEST
compare_values(refscf,   get_variable("SCF total energy"),        5, "SCF energy")               #TEST
compare_values(refccsd,  get_variable("CCSD correlation energy"), 4, "CCSD contribution")        #TEST
compare_values(reftotal, get_variable("Current energy"),          7, "Total energy")             #TEST
--------------------------------------------------------------------------

  Memory set to 250.000 MiB by Python script.

*** tstart() called on Marks-MacBook-Pro-3.local
*** at Thu Dec 12 18:28:59 2013

	There are an even number of electrons - assuming singlet.
	Specify the multiplicity with the MULTP option in the
	input if this is incorrect


         ---------------------------------------------------------
                                   SCF
            by Justin Turney, Rob Parrish, and Andy Simmonett
                              RHF Reference
                        1 Threads,    250 MiB Core
         ---------------------------------------------------------

  ==> Geometry <==

    Molecular point group: c2v
    Full point group: C2v

    Geometry (in Angstrom), charge = 0, multiplicity = 1:

       Center              X                  Y                   Z       
    ------------   -----------------  -----------------  -----------------
           O          0.000000000000     0.000000000000    -0.067578587269
           H          0.000000000000    -0.759129912147     0.536260610269
           H          0.000000000000     0.759129912147     0.536260610269

  Running in c2v symmetry.

  Nuclear repulsion =    9.077238153630928

  Charge       = 0
  Multiplicity = 1
  Electrons    = 10
  Nalpha       = 5
  Nbeta        = 5

  ==> Algorithm <==

  SCF Algorithm Type is PK.
  DIIS enabled.
  MOM disabled.
  Fractional occupation disabled.
  Guess Type is CORE.
  Energy threshold   = 1.00e-10
  Density threshold  = 1.00e-10
  Integral threshold = 0.00e+00

  ==> Primary Basis <==

  Basis Set: 6-31G**
    Number of shells: 12
    Number of basis function: 25
    Number of Cartesian functions: 25
    Spherical Harmonics?: false
    Max angular momentum: 2

  ==> Pre-Iterations <==

   -------------------------------------------------------
    Irrep   Nso     Nmo     Nalpha   Nbeta   Ndocc  Nsocc
   -------------------------------------------------------
     A1        12      12       0       0       0       0
     A2         2       2       0       0       0       0
     B1         4       4       0       0       0       0
     B2         7       7       0       0       0       0
   -------------------------------------------------------
    Total      25      25       5       5       5       0
   -------------------------------------------------------

  Starting with a DF guess...

 OEINTS: Wrapper to libmints.
   by Justin Turney

   Calculation information:
      Number of atoms:                   3
      Number of AO shells:              12
      Number of SO shells:               9
      Number of primitives:             25
      Number of atomic orbitals:        25
      Number of basis functions:        25

      Number of irreps:                  4
      Number of functions per irrep: [  12    2    4    7 ]

      Overlap, kinetic, potential, dipole, and quadrupole integrals
        stored in file 35.

  ==> Integral Setup <==

  ==> DFJK: Density-Fitted J/K Matrices <==

    J tasked:                  Yes
    K tasked:                  Yes
    wK tasked:                  No
    OpenMP threads:              1
    Integrals threads:           1
    Memory (MB):               178
    Algorithm:                Core
    Integral Cache:           NONE
    Schwarz Cutoff:          1E-12
    Fitting Condition:       1E-12

   => Auxiliary Basis Set <=

  Basis Set: CC-PVDZ-JKFIT
    Number of shells: 42
    Number of basis function: 131
    Number of Cartesian functions: 131
    Spherical Harmonics?: false
    Max angular momentum: 3

  Minimum eigenvalue in the overlap matrix is 2.2308645666E-02.
  Using Symmetric Orthogonalization.
  SCF Guess: Core (One-Electron) Hamiltonian.

  ==> Iterations <==

                           Total Energy        Delta E     RMS |[F,P]|

	Occupation by irrep:
	         A1    A2    B1    B2 
	DOCC [     4,    0,    0,    1 ]

   @DF-RHF iter   1:   -68.29452475260592   -6.82945e+01   2.54109e-01 
	Occupation by irrep:
	         A1    A2    B1    B2 
	DOCC [     3,    0,    1,    1 ]

   @DF-RHF iter   2:   -71.40191095762528   -3.10739e+00   1.69981e-01 DIIS
   @DF-RHF iter   3:   -75.76842737014402   -4.36652e+00   5.68967e-02 DIIS
   @DF-RHF iter   4:   -76.00462056305345   -2.36193e-01   1.34110e-02 DIIS
   @DF-RHF iter   5:   -76.02153979827870   -1.69192e-02   1.99767e-03 DIIS
   @DF-RHF iter   6:   -76.02192247185738   -3.82674e-04   5.06498e-04 DIIS
   @DF-RHF iter   7:   -76.02196068326127   -3.82114e-05   8.50984e-05 DIIS
   @DF-RHF iter   8:   -76.02196185139256   -1.16813e-06   1.89719e-05 DIIS
   @DF-RHF iter   9:   -76.02196192333498   -7.19424e-08   3.51280e-06 DIIS
   @DF-RHF iter  10:   -76.02196192504839   -1.71340e-09   1.85052e-07 DIIS
   @DF-RHF iter  11:   -76.02196192505551   -7.11964e-12   4.33800e-08 DIIS
   @DF-RHF iter  12:   -76.02196192505581   -2.98428e-13   6.89424e-09 DIIS
   @DF-RHF iter  13:   -76.02196192505581    0.00000e+00   5.87469e-10 DIIS
   @DF-RHF iter  14:   -76.02196192505579    1.42109e-14   4.06538e-11 DIIS

  DF guess converged.

  ==> Integral Setup <==

 MINTS: Wrapper to libmints.
   by Justin Turney

   Calculation information:
      Number of atoms:                   3
      Number of AO shells:              12
      Number of SO shells:               9
      Number of primitives:             25
      Number of atomic orbitals:        25
      Number of basis functions:        25

      Number of irreps:                  4
      Integral cutoff                 0.00e+00
      Number of functions per irrep: [  12    2    4    7 ]

      Overlap, kinetic, potential, dipole, and quadrupole integrals
        stored in file 35.

      Computing two-electron integrals...done
      Computed 13713 non-zero two-electron integrals.
        Stored in file 33.

	Batch   1 pq = [       0,     119] index = [             0,7140]
  ==> DiskJK: Disk-Based J/K Matrices <==

    J tasked:                  Yes
    K tasked:                  Yes
    wK tasked:                  No
    Memory (MB):               178
    Schwarz Cutoff:          1E-12

   @RHF iter  15:   -76.02199785719958   -3.59321e-05   1.16893e-05 DIIS
   @RHF iter  16:   -76.02199786782946   -1.06299e-08   1.60251e-06 DIIS
   @RHF iter  17:   -76.02199786810120   -2.71740e-10   4.65348e-07 DIIS
   @RHF iter  18:   -76.02199786812034   -1.91420e-11   1.57661e-07 DIIS
   @RHF iter  19:   -76.02199786812288   -2.54374e-12   4.14567e-08 DIIS
   @RHF iter  20:   -76.02199786812307   -1.84741e-13   4.55869e-09 DIIS
   @RHF iter  21:   -76.02199786812311   -4.26326e-14   6.52507e-10 DIIS
   @RHF iter  22:   -76.02199786812307    4.26326e-14   8.28125e-11 DIIS

  ==> Post-Iterations <==

	Orbital Energies (a.u.)
	-----------------------

	Doubly Occupied:                                                      

	   1A1   -20.563756     2A1    -1.335128     1B2    -0.693868  
	   3A1    -0.569546     1B1    -0.496894  

	Virtual:                                                              

	   4A1     0.209148     2B2     0.301190     3B2     0.992987  
	   5A1     1.080901     6A1     1.131133     2B1     1.168613  
	   4B2     1.294487     7A1     1.418369     1A2     1.805555  
	   8A1     1.805556     3B1     1.919426     9A1     2.554725  
	   5B2     2.571406     6B2     2.778746     2A2     2.955797  
	   4B1     2.985114    10A1     3.349725    11A1     3.681198  
	   7B2     3.913090    12A1     4.093637  

	Final Occupation by Irrep:
	         A1    A2    B1    B2 
	DOCC [     3,    0,    1,    1 ]

  Energy converged.

  @RHF Final Energy:   -76.02199786812307

   => Energetics <=

    Nuclear Repulsion Energy =              9.0772381536309279
    One-Electron Energy =                -122.8800883798888890
    Two-Electron Energy =                  37.7808523581349007
    DFT Exchange-Correlation Energy =       0.0000000000000000
    Empirical Dispersion Energy =           0.0000000000000000
    Total Energy =                        -76.0219978681230657



Properties will be evaluated at   0.000000,   0.000000,   0.000000 Bohr
  ==> Properties <==


Properties computed using the SCF density density matrix
  Nuclear Dipole Moment: (a.u.)
     X:     0.0000      Y:     0.0000      Z:     1.0051

  Electronic Dipole Moment: (a.u.)
     X:     0.0000      Y:     0.0000      Z:    -0.1315

  Dipole Moment: (a.u.)
     X:     0.0000      Y:     0.0000      Z:     0.8736     Total:     0.8736

  Dipole Moment: (Debye)
     X:     0.0000      Y:     0.0000      Z:     2.2205     Total:     2.2205


  Saving occupied orbitals to File 180.

*** tstop() called on Marks-MacBook-Pro-3.local at Thu Dec 12 18:28:59 2013
Module time:
	user time   =       0.10 seconds =       0.00 minutes
	system time =       0.02 seconds =       0.00 minutes
	total time  =          0 seconds =       0.00 minutes
Total time:
	user time   =       0.10 seconds =       0.00 minutes
	system time =       0.02 seconds =       0.00 minutes
	total time  =          0 seconds =       0.00 minutes

*** tstart() called on Marks-MacBook-Pro-3.local
*** at Thu Dec 12 18:28:59 2013


	**************************************************
	* TRANSQT2: Program to transform integrals from  *
	*           the SO basis to the MO basis.        *
	*                                                *
	*            Daniel, David, & Justin             *
	**************************************************


	Input parameters:
	-----------------
	Wave function   =	CCSD
	Backtransform   =	No
	Print Level     =	1
	Print TEIs      =	Yes
	Reference wfn   =	RHF
	Derivative      =	First
	Delete TEI File =	Yes
	Memory (Mbytes) =	250.0
	Cache Level     =	2
	Cache Type      =	LRU
	Chkpt Parameters:
	--------------------
	Number of irreps     = 4
	Number of SOs        = 25
	Number of MOs        = 25
	Number of active MOs = 25

	Label	# SOs	# FZDC	# DOCC	# SOCC	# VIRT	# FZVR
	-----	-----	------	------	------	------	------
	 A1	   12	    0	    3	    0	    9	    0
	 A2	   2	    0	    0	    0	    2	    0
	 B1	   4	    0	    1	    0	    3	    0
	 B2	   7	    0	    1	    0	    6	    0

	Nuclear Rep. energy (chkpt) =      9.07723815363093
	SCF energy          (chkpt) =    -76.02199786812307

	Presorting SO-basis two-electron integrals.
	Sorting File: SO Ints (pq,rs) nbuckets = 1
	Frozen-core energy =    0.000000000000000
	Starting first half-transformation.
	Sorting half-transformed integrals.
	Starting second half-transformation.
>0 0 0 0 =         4.7351970680
>1 0 0 0 =         0.4260811964
>1 0 1 0 =         0.0624019865
>1 1 0 0 =         1.0403675885
>1 1 1 0 =         0.0136763162
>1 1 1 1 =         0.7517229617
>2 0 0 0 =         0.1422664841
>2 0 1 0 =         0.0171318780
>2 0 1 1 =         0.0145549545
>2 0 2 0 =         0.0297800775
>2 1 0 0 =         0.0916935152
>2 1 1 0 =         0.0078639067
>2 1 1 1 =        -0.0171252264
>2 1 2 0 =        -0.0223378350
>2 1 2 1 =         0.1249093732
>2 2 0 0 =         0.9753176262
>2 2 1 0 =         0.0124715398
>2 2 1 1 =         0.6744446721
>2 2 2 0 =        -0.0094516591
>2 2 2 1 =         0.0699440859
>2 2 2 2 =         0.7182827282
>5 0 0 0 =         0.1582218536
>5 0 1 0 =         0.0249958425
>5 0 1 1 =         0.0014839776
>5 0 2 0 =        -0.0012141076
>5 0 2 1 =         0.0107782497
>5 0 2 2 =         0.0083553738
>5 0 5 0 =         0.0126472029
>5 0 3 3 =         0.0030841834
>5 0 4 4 =         0.0004737658
>5 1 0 0 =         0.2197277229
>5 1 1 0 =         0.0047851050
>5 1 1 1 =         0.1130707550
>5 1 2 0 =         0.0112886225
>5 1 2 1 =        -0.0212781407
>5 1 2 2 =         0.0752349408
>5 1 5 0 =        -0.0014778762
>5 1 5 1 =         0.0428062103
>5 1 3 3 =         0.1026594931
>5 1 4 4 =         0.0788724848
>5 2 0 0 =        -0.1393367168
>5 2 1 0 =        -0.0009201932
>5 2 1 1 =        -0.0747584001
>5 2 2 0 =        -0.0034555292
>5 2 2 1 =        -0.0086182734
>5 2 2 2 =        -0.0759070213
>5 2 5 0 =         0.0008514599
>5 2 5 1 =        -0.0260575690
>5 2 5 2 =         0.0283670962
>5 2 3 3 =        -0.0709386709
>5 2 4 4 =        -0.0486149935
>5 5 0 0 =         0.4478206455
>5 5 1 0 =         0.0023996634
>5 5 1 1 =         0.3934491320
>5 5 2 0 =         0.0082247937
>5 5 2 1 =        -0.0372752826
>5 5 2 2 =         0.3601200250
>5 5 5 0 =        -0.0015750150
>5 5 5 1 =         0.0237462066
>5 5 5 2 =        -0.0030069325
>5 5 5 5 =         0.3358803043
>5 5 3 3 =         0.3664244969
>5 5 4 4 =         0.3820703667
>6 0 0 0 =         0.0888596552
>6 0 1 0 =         0.0165761433
>6 0 1 1 =        -0.0051112084
>6 0 2 0 =        -0.0163887756
>6 0 2 1 =         0.0207716845
>6 0 2 2 =         0.0128341040
>6 0 5 0 =         0.0134112142
>6 0 5 1 =        -0.0067259162
>6 0 5 2 =         0.0024536977
>6 0 5 5 =        -0.0052790827
>6 0 6 0 =         0.0219827184
>6 0 3 3 =         0.0003485089
>6 0 4 4 =        -0.0019475398
>6 1 0 0 =         0.1284251071
>6 1 1 0 =         0.0023399560
>6 1 1 1 =         0.0480351070
>6 1 2 0 =         0.0142525505
>6 1 2 1 =        -0.0180302115
>6 1 2 2 =         0.0181044482
>6 1 5 0 =        -0.0036202800
>6 1 5 1 =         0.0350438605
>6 1 5 2 =        -0.0229694901
>6 1 5 5 =         0.0054540448
>6 1 6 0 =        -0.0105203176
>6 1 6 1 =         0.0530767943
>6 1 3 3 =         0.0608647960
>6 1 4 4 =         0.0040878718
>6 2 0 0 =        -0.2718157980
>6 2 1 0 =        -0.0068559931
>6 2 1 1 =        -0.0937543676
>6 2 2 0 =        -0.0004251630
>6 2 2 1 =        -0.0258671709
>6 2 2 2 =        -0.1060114922
>6 2 5 0 =        -0.0027247482
>6 2 5 1 =        -0.0348554275
>6 2 5 2 =         0.0308479516
>6 2 5 5 =        -0.0135799866
>6 2 6 0 =        -0.0025735339
>6 2 6 1 =        -0.0325612195
>6 2 6 2 =         0.0655760552
>6 2 3 3 =        -0.0967426793
>6 2 4 4 =        -0.0547441133
>6 5 0 0 =         0.2087662548
>6 5 1 0 =         0.0031292385
>6 5 1 1 =         0.1268733869
>6 5 2 0 =         0.0084939762
>6 5 2 1 =        -0.0245771324
>6 5 2 2 =         0.0989146498
>6 5 5 0 =        -0.0014012747
>6 5 5 1 =         0.0299889054
>6 5 5 2 =        -0.0164232423
>6 5 5 5 =         0.0456162687
>6 5 6 0 =        -0.0053089045
>6 5 6 1 =         0.0105324380
>6 5 6 2 =        -0.0178213318
>6 5 6 5 =         0.0451655345
>6 5 3 3 =         0.1076736082
>6 5 4 4 =         0.1100498077
>6 6 0 0 =         0.7208029619
>6 6 1 0 =         0.0063293107
>6 6 1 1 =         0.5709535284
>6 6 2 0 =         0.0106300399
>6 6 2 1 =        -0.0423298280
>6 6 2 2 =         0.5220113647
>6 6 5 0 =        -0.0007161884
>6 6 5 1 =         0.0538752091
>6 6 5 2 =        -0.0294607988
>6 6 5 5 =         0.3744375718
>6 6 6 0 =        -0.0054056275
>6 6 6 1 =        -0.0065005397
>6 6 6 2 =        -0.0232419165
>6 6 6 5 =         0.1062537839
>6 6 6 6 =         0.5428286256
>6 6 3 3 =         0.5226409422
>6 6 4 4 =         0.5535114347
>7 0 0 0 =        -0.1706247012
>7 0 1 0 =        -0.0209498023
>7 0 1 1 =        -0.0127928766
>7 0 2 0 =        -0.0264884320
>7 0 2 1 =         0.0157823234
>7 0 2 2 =         0.0052806104
>7 0 5 0 =        -0.0016217644
>7 0 5 1 =        -0.0092356231
>7 0 5 2 =         0.0029422744
>7 0 5 5 =        -0.0065629826
>7 0 6 0 =         0.0118343682
>7 0 6 1 =        -0.0112541521
>7 0 6 2 =         0.0015891231
>7 0 6 5 =        -0.0070125157
>7 0 6 6 =        -0.0091837699
>7 0 7 0 =         0.0245346914
>7 0 3 3 =        -0.0050236158
>7 0 4 4 =        -0.0065499355
>7 1 0 0 =        -0.1673351373
>7 1 1 0 =        -0.0061887652
>7 1 1 1 =        -0.0583144588
>7 1 2 0 =         0.0067987975
>7 1 2 1 =        -0.0299310303
>7 1 2 2 =        -0.0720997009
>7 1 5 0 =        -0.0049708922
>7 1 5 1 =        -0.0152442174
>7 1 5 2 =         0.0094516394
>7 1 5 5 =        -0.0096730485
>7 1 6 0 =        -0.0080176978
>7 1 6 1 =        -0.0105668338
>7 1 6 2 =         0.0349483399
>7 1 6 5 =        -0.0078183204
>7 1 6 6 =        -0.0134136557
>7 1 7 0 =        -0.0045108238
>7 1 7 1 =         0.0348760284
>7 1 3 3 =        -0.0770679938
>7 1 4 4 =        -0.0339053742
>7 2 0 0 =        -0.3364697837
>7 2 1 0 =        -0.0105153010
>7 2 1 1 =        -0.1309260295
>7 2 2 0 =         0.0075926248
>7 2 2 1 =        -0.0325938942
>7 2 2 2 =        -0.1433651448
>7 2 5 0 =        -0.0070409566
>7 2 5 1 =        -0.0269327128
>7 2 5 2 =         0.0181891284
>7 2 5 5 =        -0.0317791722
>7 2 6 0 =        -0.0106555436
>7 2 6 1 =         0.0029513031
>7 2 6 2 =         0.0510770115
>7 2 6 5 =        -0.0351714821
>7 2 6 6 =        -0.0884575116
>7 2 7 0 =        -0.0041479436
>7 2 7 1 =         0.0408637923
>7 2 7 2 =         0.0910961201
>7 2 3 3 =        -0.1317447928
>7 2 4 4 =        -0.1138124784
>7 5 0 0 =        -0.0134424690
>7 5 1 0 =         0.0002355928
>7 5 1 1 =        -0.0237886771
>7 5 2 0 =         0.0017058452
>7 5 2 1 =        -0.0158288426
>7 5 2 2 =        -0.0270429100
>7 5 5 0 =        -0.0004908341
>7 5 5 1 =        -0.0012352804
>7 5 5 2 =         0.0101025511
>7 5 5 5 =         0.0076986372
>7 5 6 0 =        -0.0012189758
>7 5 6 1 =         0.0017301665
>7 5 6 2 =        -0.0046724245
>7 5 6 5 =        -0.0048190264
>7 5 6 6 =        -0.0165424475
>7 5 7 0 =        -0.0014271439
>7 5 7 1 =        -0.0050260884
>7 5 7 2 =        -0.0035927904
>7 5 7 5 =         0.0191697537
>7 5 3 3 =        -0.0296801854
>7 5 4 4 =        -0.0255108759
>7 6 0 0 =         0.1497842928
>7 6 1 0 =         0.0061737512
>7 6 1 1 =         0.0191778558
>7 6 2 0 =        -0.0057227976
>7 6 2 1 =         0.0570674938
>7 6 2 2 =         0.0658929844
>7 6 5 0 =         0.0044825337
>7 6 5 1 =         0.0095341458
>7 6 5 2 =        -0.0255919034
>7 6 5 5 =        -0.0215009968
>7 6 6 0 =         0.0070319808
>7 6 6 1 =         0.0212023441
>7 6 6 2 =        -0.0407156267
>7 6 6 5 =        -0.0077177932
>7 6 6 6 =        -0.0296968991
>7 6 7 0 =         0.0030998599
>7 6 7 1 =        -0.0214870032
>7 6 7 2 =        -0.0160008093
>7 6 7 5 =        -0.0095872936
>7 6 7 6 =         0.0603652715
>7 6 3 3 =         0.0433042079
>7 6 4 4 =        -0.0057829137
>7 7 0 0 =         0.7139810233
>7 7 1 0 =         0.0099948229
>7 7 1 1 =         0.5114167971
>7 7 2 0 =        -0.0093521410
>7 7 2 1 =         0.0686305316
>7 7 2 2 =         0.5520815200
>7 7 5 0 =         0.0073530843
>7 7 5 1 =         0.0362406876
>7 7 5 2 =        -0.0496171111
>7 7 5 5 =         0.3107477604
>7 7 6 0 =         0.0116399435
>7 7 6 1 =         0.0028148619
>7 7 6 2 =        -0.0518275562
>7 7 6 5 =         0.0569299974
>7 7 6 6 =         0.4271922918
>7 7 7 0 =         0.0054537543
>7 7 7 1 =        -0.0343321962
>7 7 7 2 =        -0.0735763023
>7 7 7 5 =        -0.0359350051
>7 7 7 6 =         0.0550556924
>7 7 7 7 =         0.4858665414
>7 7 3 3 =         0.5173305749
>7 7 4 4 =         0.4793455893
>8 0 0 0 =        -0.1344187077
>8 0 1 0 =        -0.0203322218
>8 0 1 1 =         0.0006395230
>8 0 2 0 =         0.0080124191
>8 0 2 1 =        -0.0139590472
>8 0 2 2 =        -0.0110357728
>8 0 5 0 =        -0.0123969179
>8 0 5 1 =         0.0031083937
>8 0 5 2 =        -0.0009709488
>8 0 5 5 =         0.0026580607
>8 0 6 0 =        -0.0167191496
>8 0 6 1 =         0.0054865618
>8 0 6 2 =         0.0036102869
>8 0 6 5 =         0.0023163910
>8 0 6 6 =         0.0015185151
>8 0 7 0 =        -0.0040686417
>8 0 7 1 =         0.0062593105
>8 0 7 2 =         0.0091515648
>8 0 7 5 =         0.0004756329
>8 0 7 6 =        -0.0059941728
>8 0 7 7 =        -0.0095603543
>8 0 8 0 =         0.0147114996
>8 0 3 3 =        -0.0043794636
>8 0 4 4 =         0.0005322233
>8 1 0 0 =        -0.2102820186
>8 1 1 0 =        -0.0039434143
>8 1 1 1 =        -0.0920799512
>8 1 2 0 =        -0.0087544452
>8 1 2 1 =        -0.0005552628
>8 1 2 2 =        -0.0646116112
>8 1 5 0 =         0.0011067381
>8 1 5 1 =        -0.0317728228
>8 1 5 2 =         0.0213466229
>8 1 5 5 =        -0.0191995680
>8 1 6 0 =         0.0050116254
>8 1 6 1 =        -0.0151112476
>8 1 6 2 =         0.0296442539
>8 1 6 5 =        -0.0270001281
>8 1 6 6 =        -0.0550803103
>8 1 7 0 =         0.0075471889
>8 1 7 1 =         0.0069437966
>8 1 7 2 =         0.0342753027
>8 1 7 5 =         0.0047129376
>8 1 7 6 =        -0.0081169746
>8 1 7 7 =        -0.0394385210
>8 1 8 0 =        -0.0026163947
>8 1 8 1 =         0.0539012258
>8 1 3 3 =        -0.0697619787
>8 1 4 4 =        -0.0870564307
>8 2 0 0 =         0.1125176422
>8 2 1 0 =         0.0033156855
>8 2 1 1 =         0.0279000519
>8 2 2 0 =         0.0032602685
>8 2 2 1 =         0.0133579616
>8 2 2 2 =         0.0280002702
>8 2 5 0 =         0.0003390891
>8 2 5 1 =         0.0135106165
>8 2 5 2 =        -0.0152184050
>8 2 5 5 =        -0.0007657774
>8 2 6 0 =        -0.0012097441
>8 2 6 1 =         0.0128802111
>8 2 6 2 =        -0.0175930651
>8 2 6 5 =         0.0098526374
>8 2 6 6 =         0.0169358791
>8 2 7 0 =        -0.0032181957
>8 2 7 1 =        -0.0007695506
>8 2 7 2 =        -0.0172812891
>8 2 7 5 =        -0.0056528271
>8 2 7 6 =         0.0147266812
>8 2 7 7 =         0.0229380149
>8 2 8 0 =        -0.0003453887
>8 2 8 1 =        -0.0255904054
>8 2 8 2 =         0.0257059792
>8 2 3 3 =         0.0328141332
>8 2 4 4 =         0.0204319922
>8 5 0 0 =        -0.1702276736
>8 5 1 0 =        -0.0027777022
>8 5 1 1 =        -0.0936268258
>8 5 2 0 =        -0.0062523637
>8 5 2 1 =         0.0082344860
>8 5 2 2 =        -0.0772866278
>8 5 5 0 =         0.0008369110
>8 5 5 1 =        -0.0255598462
>8 5 5 2 =         0.0179552891
>8 5 5 5 =        -0.0224861602
>8 5 6 0 =         0.0036999524
>8 5 6 1 =        -0.0185908252
>8 5 6 2 =         0.0226059404
>8 5 6 5 =        -0.0235609981
>8 5 6 6 =        -0.0541835984
>8 5 7 0 =         0.0053083618
>8 5 7 1 =         0.0100513859
>8 5 7 2 =         0.0202516731
>8 5 7 5 =         0.0034271432
>8 5 7 6 =        -0.0111277043
>8 5 7 7 =        -0.0484443458
>8 5 8 0 =        -0.0015701807
>8 5 8 1 =         0.0183815213
>8 5 8 2 =        -0.0061367038
>8 5 8 5 =         0.0266161335
>8 5 3 3 =        -0.0863371833
>8 5 4 4 =        -0.0738018428
>8 6 0 0 =        -0.1296057680
>8 6 1 0 =        -0.0045469602
>8 6 1 1 =        -0.0271860829
>8 6 2 0 =        -0.0077373268
>8 6 2 1 =         0.0142926921
>8 6 2 2 =        -0.0199327719
>8 6 5 0 =         0.0005360956
>8 6 5 1 =        -0.0192668107
>8 6 5 2 =         0.0101938139
>8 6 5 5 =        -0.0111785664
>8 6 6 0 =         0.0041338663
>8 6 6 1 =        -0.0217101031
>8 6 6 2 =         0.0245740675
>8 6 6 5 =        -0.0113442837
>8 6 6 6 =        -0.0066174896
>8 6 7 0 =         0.0067711441
>8 6 7 1 =         0.0097682150
>8 6 7 2 =         0.0136557294
>8 6 7 5 =        -0.0091559850
>8 6 7 6 =        -0.0106588502
>8 6 7 7 =         0.0013846624
>8 6 8 0 =        -0.0011292716
>8 6 8 1 =         0.0162882573
>8 6 8 2 =        -0.0067517628
>8 6 8 5 =         0.0107795039
>8 6 8 6 =         0.0255410267
>8 6 3 3 =        -0.0174972490
>8 6 4 4 =        -0.0076950533
>8 7 0 0 =        -0.0700387314
>8 7 1 0 =        -0.0017807909
>8 7 1 1 =        -0.0419740053
>8 7 2 0 =        -0.0029793853
>8 7 2 1 =         0.0223621449
>8 7 2 2 =        -0.0301703634
>8 7 5 0 =         0.0001856045
>8 7 5 1 =        -0.0095089098
>8 7 5 2 =         0.0021327849
>8 7 5 5 =        -0.0201637829
>8 7 6 0 =         0.0014524210
>8 7 6 1 =        -0.0003988930
>8 7 6 2 =         0.0051864645
>8 7 6 5 =        -0.0155790419
>8 7 6 6 =        -0.0392829766
>8 7 7 0 =         0.0025707927
>8 7 7 1 =         0.0027093462
>8 7 7 2 =         0.0121491649
>8 7 7 5 =        -0.0043927687
>8 7 7 6 =         0.0101816772
>8 7 7 7 =        -0.0125704102
>8 7 8 0 =        -0.0001808874
>8 7 8 1 =         0.0034470827
>8 7 8 2 =         0.0043173111
>8 7 8 5 =         0.0091456274
>8 7 8 6 =         0.0050860630
>8 7 8 7 =         0.0144654730
>8 7 3 3 =        -0.0265870662
>8 7 4 4 =        -0.0365789989
>8 8 0 0 =         0.6536223413
>8 8 1 0 =         0.0032493849
>8 8 1 1 =         0.5550332108
>8 8 2 0 =         0.0114817556
>8 8 2 1 =        -0.0507394550
>8 8 2 2 =         0.4909498907
>8 8 5 0 =        -0.0023482361
>8 8 5 1 =         0.0611036431
>8 8 5 2 =        -0.0300920292
>8 8 5 5 =         0.3613894961
>8 8 6 0 =        -0.0073595070
>8 8 6 1 =         0.0266927289
>8 8 6 2 =        -0.0387067762
>8 8 6 5 =         0.0793637595
>8 8 6 6 =         0.4621943864
>8 8 7 0 =        -0.0091830759
>8 8 7 1 =        -0.0279637438
>8 8 7 2 =        -0.0596087617
>8 8 7 5 =        -0.0036925990
>8 8 7 6 =        -0.0105523476
>8 8 7 7 =         0.3930230882
>8 8 8 0 =         0.0035827112
>8 8 8 1 =        -0.0237700882
>8 8 8 2 =        -0.0074836973
>8 8 8 5 =        -0.0624785073
>8 8 8 6 =        -0.0085636999
>8 8 8 7 =        -0.0390128669
>8 8 8 8 =         0.4996173947
>8 8 3 3 =         0.5270488691
>8 8 4 4 =         0.5114213647
>9 0 0 0 =        -0.0140480704
>9 0 1 0 =        -0.0018678568
>9 0 1 1 =        -0.0000345425
>9 0 2 0 =         0.0007197106
>9 0 2 1 =        -0.0014752431
>9 0 2 2 =         0.0010562744
>9 0 5 0 =        -0.0011138511
>9 0 5 1 =         0.0003099597
>9 0 5 2 =        -0.0007872364
>9 0 5 5 =         0.0004453404
>9 0 6 0 =        -0.0015148941
>9 0 6 1 =         0.0006154274
>9 0 6 2 =        -0.0008653891
>9 0 6 5 =         0.0005890007
>9 0 6 6 =         0.0008282747
>9 0 7 0 =        -0.0002890525
>9 0 7 1 =         0.0005955218
>9 0 7 2 =         0.0000071556
>9 0 7 5 =         0.0003853441
>9 0 7 6 =         0.0003062503
>9 0 7 7 =        -0.0001039676
>9 0 8 0 =         0.0014082149
>9 0 8 1 =         0.0000400258
>9 0 8 2 =         0.0004578145
>9 0 8 5 =        -0.0002895923
>9 0 8 6 =        -0.0006562825
>9 0 8 7 =        -0.0004549909
>9 0 8 8 =         0.0003409155
>9 0 9 0 =         0.0003955731
>9 0 3 3 =        -0.0017919856
>9 0 4 4 =        -0.0011626503
>9 1 0 0 =        -0.0248660675
>9 1 1 0 =        -0.0000223938
>9 1 1 1 =        -0.0193618965
>9 1 2 0 =        -0.0026183106
>9 1 2 1 =         0.0225272406
>9 1 2 2 =        -0.0432899610
>9 1 5 0 =         0.0008414588
>9 1 5 1 =        -0.0092301776
>9 1 5 2 =         0.0113464948
>9 1 5 5 =        -0.0119972452
>9 1 6 0 =         0.0019787843
>9 1 6 1 =        -0.0074322368
>9 1 6 2 =         0.0118515063
>9 1 6 5 =        -0.0105305266
>9 1 6 6 =        -0.0182967193
>9 1 7 0 =         0.0018672567
>9 1 7 1 =         0.0033482401
>9 1 7 2 =         0.0025905337
>9 1 7 5 =        -0.0064066295
>9 1 7 6 =        -0.0067163145
>9 1 7 7 =        -0.0111410122
>9 1 8 0 =        -0.0009242496
>9 1 8 1 =        -0.0049261986
>9 1 8 2 =         0.0048975707
>9 1 8 5 =         0.0069331191
>9 1 8 6 =         0.0167423307
>9 1 8 7 =         0.0088927915
>9 1 8 8 =        -0.0149725489
>9 1 9 0 =        -0.0017003178
>9 1 9 1 =         0.0518748717
>9 1 3 3 =         0.0088262645
>9 1 4 4 =         0.0055123412
>9 2 0 0 =         0.0039853809
>9 2 1 0 =        -0.0021958570
>9 2 1 1 =         0.0401921282
>9 2 2 0 =         0.0144933093
>9 2 2 1 =        -0.0884841950
>9 2 2 2 =        -0.0365046201
>9 2 5 0 =        -0.0056285262
>9 2 5 1 =         0.0227264822
>9 2 5 2 =         0.0075764186
>9 2 5 5 =         0.0327823476
>9 2 6 0 =        -0.0120846543
>9 2 6 1 =         0.0160590030
>9 2 6 2 =         0.0128757236
>9 2 6 5 =         0.0218059422
>9 2 6 6 =         0.0394887180
>9 2 7 0 =        -0.0104988407
>9 2 7 1 =         0.0089780080
>9 2 7 2 =         0.0089364561
>9 2 7 5 =         0.0134222209
>9 2 7 6 =        -0.0408249104
>9 2 7 7 =        -0.0456125923
>9 2 8 0 =         0.0076731248
>9 2 8 1 =        -0.0006038417
>9 2 8 2 =        -0.0136822945
>9 2 8 5 =        -0.0101681565
>9 2 8 6 =        -0.0125778151
>9 2 8 7 =        -0.0160123392
>9 2 8 8 =         0.0543224044
>9 2 9 0 =         0.0002171827
>9 2 9 1 =        -0.0103640498
>9 2 9 2 =         0.0901538513
>9 2 3 3 =         0.0086828957
>9 2 4 4 =         0.0328731553
>9 5 0 0 =        -0.0159319154
>9 5 1 0 =         0.0004916301
>9 5 1 1 =        -0.0188639314
>9 5 2 0 =        -0.0046905781
>9 5 2 1 =         0.0227413660
>9 5 2 2 =         0.0003779758
>9 5 5 0 =         0.0017330178
>9 5 5 1 =        -0.0091639243
>9 5 5 2 =         0.0039594740
>9 5 5 5 =        -0.0094654858
>9 5 6 0 =         0.0038196512
>9 5 6 1 =        -0.0077193139
>9 5 6 2 =         0.0040405414
>9 5 6 5 =        -0.0081775368
>9 5 6 6 =        -0.0143128664
>9 5 7 0 =         0.0034494803
>9 5 7 1 =        -0.0037029221
>9 5 7 2 =         0.0012144363
>9 5 7 5 =        -0.0009420830
>9 5 7 6 =         0.0079249527
>9 5 7 7 =         0.0060178281
>9 5 8 0 =        -0.0023589954
>9 5 8 1 =         0.0050626487
>9 5 8 2 =        -0.0015650192
>9 5 8 5 =         0.0043161262
>9 5 8 6 =         0.0027621930
>9 5 8 7 =         0.0048452729
>9 5 8 8 =        -0.0160232655
>9 5 9 0 =        -0.0004791042
>9 5 9 1 =         0.0028091065
>9 5 9 2 =        -0.0189429994
>9 5 9 5 =         0.0108395021
>9 5 3 3 =        -0.0065149331
>9 5 4 4 =        -0.0147331357
>9 6 0 0 =        -0.0110744096
>9 6 1 0 =         0.0004205319
>9 6 1 1 =        -0.0073961114
>9 6 2 0 =        -0.0054204597
>9 6 2 1 =         0.0103863150
>9 6 2 2 =         0.0084846640
>9 6 5 0 =         0.0019357238
>9 6 5 1 =        -0.0075674855
>9 6 5 2 =         0.0075268301
>9 6 5 5 =        -0.0003390934
>9 6 6 0 =         0.0043588743
>9 6 6 1 =        -0.0077862277
>9 6 6 2 =         0.0047919798
>9 6 6 5 =        -0.0036989834
>9 6 6 6 =        -0.0009946516
>9 6 7 0 =         0.0041725654
>9 6 7 1 =        -0.0092214847
>9 6 7 2 =        -0.0073402786
>9 6 7 5 =         0.0047452070
>9 6 7 6 =         0.0004795208
>9 6 7 7 =        -0.0001094833
>9 6 8 0 =        -0.0028610166
>9 6 8 1 =         0.0159063674
>9 6 8 2 =        -0.0080906039
>9 6 8 5 =         0.0011854145
>9 6 8 6 =         0.0014662841
>9 6 8 7 =         0.0010333233
>9 6 8 8 =         0.0047209521
>9 6 9 0 =        -0.0003073618
>9 6 9 1 =        -0.0061086932
>9 6 9 2 =        -0.0027790175
>9 6 9 5 =         0.0092549230
>9 6 9 6 =         0.0228782761
>9 6 3 3 =         0.0070435915
>9 6 4 4 =        -0.0105874880
>9 7 0 0 =         0.0121498430
>9 7 1 0 =         0.0002972061
>9 7 1 1 =         0.0127158740
>9 7 2 0 =        -0.0026351552
>9 7 2 1 =        -0.0039100112
>9 7 2 2 =         0.0084878261
>9 7 5 0 =         0.0010017104
>9 7 5 1 =        -0.0012237279
>9 7 5 2 =         0.0041087620
>9 7 5 5 =         0.0106218502
>9 7 6 0 =         0.0023569368
>9 7 6 1 =        -0.0094987896
>9 7 6 2 =        -0.0051720639
>9 7 6 5 =         0.0053352313
>9 7 6 6 =         0.0151064514
>9 7 7 0 =         0.0020741052
>9 7 7 1 =        -0.0040751497
>9 7 7 2 =        -0.0186264971
>9 7 7 5 =         0.0049803908
>9 7 7 6 =        -0.0100536097
>9 7 7 7 =        -0.0055870010
>9 7 8 0 =        -0.0014384516
>9 7 8 1 =        -0.0012337694
>9 7 8 2 =        -0.0019578513
>9 7 8 5 =         0.0010387849
>9 7 8 6 =         0.0021635654
>9 7 8 7 =        -0.0045278515
>9 7 8 8 =         0.0125979835
>9 7 9 0 =         0.0001846822
>9 7 9 1 =         0.0050905783
>9 7 9 2 =         0.0072172552
>9 7 9 5 =        -0.0059503044
>9 7 9 6 =        -0.0022533451
>9 7 9 7 =         0.0192518997
>9 7 3 3 =         0.0039753789
>9 7 4 4 =         0.0197874283
>9 8 0 0 =        -0.0130374407
>9 8 1 0 =         0.0002560555
>9 8 1 1 =        -0.0238442970
>9 8 2 0 =         0.0014850378
>9 8 2 1 =         0.0100238945
>9 8 2 2 =        -0.0218990745
>9 8 5 0 =        -0.0003982339
>9 8 5 1 =         0.0001592928
>9 8 5 2 =        -0.0027847196
>9 8 5 5 =        -0.0129526584
>9 8 6 0 =        -0.0012881304
>9 8 6 1 =         0.0142143895
>9 8 6 2 =        -0.0050300667
>9 8 6 5 =        -0.0074180373
>9 8 6 6 =        -0.0248161150
>9 8 7 0 =        -0.0012125090
>9 8 7 1 =         0.0000142295
>9 8 7 2 =         0.0047652518
>9 8 7 5 =        -0.0006276505
>9 8 7 6 =         0.0093858436
>9 8 7 7 =        -0.0118666384
>9 8 8 0 =         0.0004648604
>9 8 8 1 =         0.0050826966
>9 8 8 2 =         0.0097322258
>9 8 8 5 =         0.0014539593
>9 8 8 6 =         0.0026515126
>9 8 8 7 =         0.0076342879
>9 8 8 8 =        -0.0142615643
>9 8 9 0 =         0.0002439657
>9 8 9 1 =         0.0095728369
>9 8 9 2 =        -0.0111018156
>9 8 9 5 =        -0.0000507553
>9 8 9 6 =         0.0021749473
>9 8 9 7 =        -0.0051327621
>9 8 9 8 =         0.0242445015
>9 8 3 3 =         0.0005208967
>9 8 4 4 =        -0.0332261211
>9 9 0 0 =         0.6661228881
>9 9 1 0 =         0.0002413605
>9 9 1 1 =         0.6091129546
>9 9 2 0 =         0.0014710542
>9 9 2 1 =        -0.0024484162
>9 9 2 2 =         0.5924365720
>9 9 5 0 =        -0.0004770060
>9 9 5 1 =         0.0579272841
>9 9 5 2 =        -0.0505485196
>9 9 5 5 =         0.3608152505
>9 9 6 0 =        -0.0009423750
>9 9 6 1 =         0.0064706697
>9 9 6 2 =        -0.0445002549
>9 9 6 5 =         0.0890495735
>9 9 6 6 =         0.5024949701
>9 9 7 0 =        -0.0009999187
>9 9 7 1 =        -0.0275693187
>9 9 7 2 =        -0.0750656237
>9 9 7 5 =        -0.0280011035
>9 9 7 6 =         0.0090980992
>9 9 7 7 =         0.4732587713
>9 9 8 0 =         0.0005694912
>9 9 8 1 =        -0.0396282074
>9 9 8 2 =         0.0050572749
>9 9 8 5 =        -0.0615864974
>9 9 8 6 =        -0.0003339499
>9 9 8 7 =        -0.0319292674
>9 9 8 8 =         0.4857421433
>9 9 9 0 =         0.0008007307
>9 9 9 1 =        -0.0296753434
>9 9 9 2 =         0.0087671075
>9 9 9 5 =        -0.0093060031
>9 9 9 6 =        -0.0008492105
>9 9 9 7 =         0.0098892166
>9 9 9 8 =        -0.0292405713
>9 9 9 9 =         0.5797372153
>9 9 3 3 =         0.5692095375
>9 9 4 4 =         0.5668570691
>10 0 0 0 =        -0.0273484944
>10 0 1 0 =        -0.0043778641
>10 0 1 1 =         0.0009954783
>10 0 2 0 =         0.0053921043
>10 0 2 1 =        -0.0055072802
>10 0 2 2 =        -0.0046149629
>10 0 5 0 =        -0.0038406992
>10 0 5 1 =         0.0018318539
>10 0 5 2 =        -0.0003431402
>10 0 5 5 =         0.0012757058
>10 0 6 0 =        -0.0067974160
>10 0 6 1 =         0.0035037730
>10 0 6 2 =         0.0014984780
>10 0 6 5 =         0.0012971660
>10 0 6 6 =         0.0008307086
>10 0 7 0 =        -0.0038137431
>10 0 7 1 =         0.0019366772
>10 0 7 2 =         0.0035878827
>10 0 7 5 =         0.0001026980
>10 0 7 6 =        -0.0024942366
>10 0 7 7 =        -0.0037113726
>10 0 8 0 =         0.0052172982
>10 0 8 1 =        -0.0005657696
>10 0 8 2 =         0.0000804552
>10 0 8 5 =        -0.0007187547
>10 0 8 6 =        -0.0008346012
>10 0 8 7 =        -0.0001332094
>10 0 8 8 =         0.0014721023
>10 0 9 0 =         0.0004703900
>10 0 9 1 =        -0.0001893217
>10 0 9 2 =         0.0033630802
>10 0 9 5 =        -0.0009022133
>10 0 9 6 =        -0.0008486422
>10 0 9 7 =        -0.0009298762
>10 0 9 8 =         0.0007473317
>10 0 9 9 =        -0.0002339904
>10 0 10 0 =         0.0025684695
>10 0 3 3 =         0.0022090062
>10 0 4 4 =        -0.0015580501
>10 1 0 0 =        -0.0348082134
>10 1 1 0 =        -0.0009660425
>10 1 1 1 =        -0.0023778195
>10 1 2 0 =        -0.0016949076
>10 1 2 1 =        -0.0069041744
>10 1 2 2 =        -0.0005107264
>10 1 5 0 =         0.0002345230
>10 1 5 1 =        -0.0041746320
>10 1 5 2 =        -0.0008854754
>10 1 5 5 =        -0.0013489080
>10 1 6 0 =         0.0016260343
>10 1 6 1 =        -0.0151350714
>10 1 6 2 =        -0.0015233900
>10 1 6 5 =        -0.0060464973
>10 1 6 6 =        -0.0080215138
>10 1 7 0 =         0.0013321918
>10 1 7 1 =         0.0088151427
>10 1 7 2 =         0.0051650373
>10 1 7 5 =         0.0011674875
>10 1 7 6 =        -0.0002678641
>10 1 7 7 =        -0.0021397142
>10 1 8 0 =         0.0001600757
>10 1 8 1 =        -0.0078747554
>10 1 8 2 =        -0.0076751641
>10 1 8 5 =        -0.0006459024
>10 1 8 6 =         0.0014154315
>10 1 8 7 =        -0.0029694575
>10 1 8 8 =         0.0009110713
>10 1 9 0 =         0.0002525318
>10 1 9 1 =        -0.0047691255
>10 1 9 2 =         0.0021391298
>10 1 9 5 =        -0.0042965219
>10 1 9 6 =        -0.0111307981
>10 1 9 7 =         0.0076371295
>10 1 9 8 =        -0.0153741064
>10 1 9 9 =         0.0108832686
>10 1 10 0 =        -0.0023021703
>10 1 10 1 =         0.0409136191
>10 1 3 3 =        -0.0449626017
>10 1 4 4 =         0.0194742964
>10 2 0 0 =         0.0330630553
>10 2 1 0 =         0.0024438116
>10 2 1 1 =        -0.0045975327
>10 2 2 0 =        -0.0016143628
>10 2 2 1 =         0.0126935480
>10 2 2 2 =         0.0072684997
>10 2 5 0 =         0.0016265976
>10 2 5 1 =        -0.0057779410
>10 2 5 2 =         0.0008222093
>10 2 5 5 =         0.0021864627
>10 2 6 0 =         0.0025524926
>10 2 6 1 =        -0.0124077736
>10 2 6 2 =        -0.0032234387
>10 2 6 5 =         0.0041848875
>10 2 6 6 =         0.0136752022
>10 2 7 0 =         0.0006750796
>10 2 7 1 =         0.0024264478
>10 2 7 2 =        -0.0089761390
>10 2 7 5 =        -0.0025150941
>10 2 7 6 =         0.0013430238
>10 2 7 7 =         0.0087087357
>10 2 8 0 =        -0.0018742264
>10 2 8 1 =        -0.0104872881
>10 2 8 2 =         0.0042135250
>10 2 8 5 =         0.0033186679
>10 2 8 6 =        -0.0002406658
>10 2 8 7 =         0.0018671885
>10 2 8 8 =        -0.0138881178
>10 2 9 0 =         0.0000683227
>10 2 9 1 =         0.0033270975
>10 2 9 2 =        -0.0146709305
>10 2 9 5 =         0.0032273802
>10 2 9 6 =        -0.0008872770
>10 2 9 7 =         0.0019895834
>10 2 9 8 =        -0.0014972306
>10 2 9 9 =        -0.0024503022
>10 2 10 0 =        -0.0015335742
>10 2 10 1 =         0.0082384096
>10 2 10 2 =         0.0223015586
>10 2 3 3 =        -0.0153946485
>10 2 4 4 =         0.0104834547
>10 5 0 0 =        -0.0529418354
>10 5 1 0 =        -0.0012261016
>10 5 1 1 =        -0.0180698701
>10 5 2 0 =        -0.0004950017
>10 5 2 1 =        -0.0118463749
>10 5 2 2 =        -0.0182172329
>10 5 5 0 =        -0.0003188309
>10 5 5 1 =        -0.0087446378
>10 5 5 2 =         0.0091294895
>10 5 5 5 =         0.0062609265
>10 5 6 0 =         0.0000986264
>10 5 6 1 =        -0.0147671565
>10 5 6 2 =         0.0158394995
>10 5 6 5 =         0.0028441150
>10 5 6 6 =         0.0099765369
>10 5 7 0 =         0.0005858742
>10 5 7 1 =         0.0089757269
>10 5 7 2 =         0.0041333079
>10 5 7 5 =         0.0014633000
>10 5 7 6 =        -0.0140037785
>10 5 7 7 =        -0.0133729174
>10 5 8 0 =         0.0005170317
>10 5 8 1 =         0.0011246196
>10 5 8 2 =        -0.0020635935
>10 5 8 5 =         0.0081012648
>10 5 8 6 =         0.0029588415
>10 5 8 7 =        -0.0003019457
>10 5 8 8 =        -0.0093630428
>10 5 9 0 =         0.0000919637
>10 5 9 1 =        -0.0044100620
>10 5 9 2 =         0.0068163961
>10 5 9 5 =         0.0001716118
>10 5 9 6 =         0.0002409574
>10 5 9 7 =         0.0019034818
>10 5 9 8 =        -0.0059403578
>10 5 9 9 =        -0.0067935380
>10 5 10 0 =        -0.0004609909
>10 5 10 1 =         0.0044035023
>10 5 10 2 =         0.0042957700
>10 5 10 5 =         0.0138487147
>10 5 3 3 =        -0.0338035800
>10 5 4 4 =        -0.0029019802
>10 6 0 0 =        -0.1512892359
>10 6 1 0 =        -0.0027346145
>10 6 1 1 =        -0.0673560714
>10 6 2 0 =         0.0004377348
>10 6 2 1 =        -0.0342485897
>10 6 2 2 =        -0.0660032846
>10 6 5 0 =        -0.0012385438
>10 6 5 1 =        -0.0252335206
>10 6 5 2 =         0.0259090840
>10 6 5 5 =         0.0081280460
>10 6 6 0 =        -0.0012536629
>10 6 6 1 =        -0.0308521707
>10 6 6 2 =         0.0407152869
>10 6 6 5 =        -0.0004417825
>10 6 6 6 =         0.0102211970
>10 6 7 0 =         0.0001680755
>10 6 7 1 =         0.0223573544
>10 6 7 2 =         0.0194617025
>10 6 7 5 =         0.0070661439
>10 6 7 6 =        -0.0379073827
>10 6 7 7 =        -0.0445385767
>10 6 8 0 =         0.0016651762
>10 6 8 1 =         0.0163292924
>10 6 8 2 =        -0.0125761201
>10 6 8 5 =         0.0162090260
>10 6 8 6 =         0.0065708223
>10 6 8 7 =        -0.0040441144
>10 6 8 8 =        -0.0259722541
>10 6 9 0 =         0.0003045690
>10 6 9 1 =        -0.0121804971
>10 6 9 2 =         0.0176594761
>10 6 9 5 =        -0.0005879346
>10 6 9 6 =         0.0058368640
>10 6 9 7 =         0.0021041253
>10 6 9 8 =        -0.0084885742
>10 6 9 9 =        -0.0359045066
>10 6 10 0 =         0.0000622811
>10 6 10 1 =         0.0032808730
>10 6 10 2 =         0.0082976188
>10 6 10 5 =         0.0226208336
>10 6 10 6 =         0.0576301338
>10 6 3 3 =        -0.0929830280
>10 6 4 4 =        -0.0371050593
>10 7 0 0 =         0.0105938925
>10 7 1 0 =        -0.0014619746
>10 7 1 1 =         0.0177889868
>10 7 2 0 =        -0.0000089261
>10 7 2 1 =         0.0121138405
>10 7 2 2 =         0.0093935521
>10 7 5 0 =        -0.0006996787
>10 7 5 1 =         0.0061194309
>10 7 5 2 =        -0.0065184064
>10 7 5 5 =        -0.0034625072
>10 7 6 0 =        -0.0009252359
>10 7 6 1 =         0.0093151238
>10 7 6 2 =        -0.0063509305
>10 7 6 5 =        -0.0012327878
>10 7 6 6 =        -0.0071576289
>10 7 7 0 =         0.0002973538
>10 7 7 1 =        -0.0033429386
>10 7 7 2 =        -0.0011955978
>10 7 7 5 =        -0.0062815809
>10 7 7 6 =         0.0069229771
>10 7 7 7 =         0.0100554209
>10 7 8 0 =         0.0007574521
>10 7 8 1 =        -0.0061781408
>10 7 8 2 =         0.0056168074
>10 7 8 5 =        -0.0016217005
>10 7 8 6 =         0.0011839700
>10 7 8 7 =         0.0040558527
>10 7 8 8 =         0.0000952773
>10 7 9 0 =        -0.0003737447
>10 7 9 1 =         0.0124126641
>10 7 9 2 =        -0.0057173394
>10 7 9 5 =        -0.0000557472
>10 7 9 6 =        -0.0041698234
>10 7 9 7 =        -0.0002755411
>10 7 9 8 =         0.0041727682
>10 7 9 9 =         0.0095071913
>10 7 10 0 =         0.0010280859
>10 7 10 1 =        -0.0043695046
>10 7 10 2 =        -0.0035654710
>10 7 10 5 =        -0.0072904782
>10 7 10 6 =        -0.0187792363
>10 7 10 7 =         0.0149247025
>10 7 3 3 =         0.0321503705
>10 7 4 4 =         0.0112194816
>10 8 0 0 =        -0.0276441429
>10 8 1 0 =         0.0013456041
>10 8 1 1 =        -0.0324063040
>10 8 2 0 =         0.0027795378
>10 8 2 1 =        -0.0259573847
>10 8 2 2 =        -0.0292737897
>10 8 5 0 =        -0.0002831197
>10 8 5 1 =        -0.0061849650
>10 8 5 2 =         0.0094788944
>10 8 5 5 =         0.0064913473
>10 8 6 0 =        -0.0016332045
>10 8 6 1 =        -0.0015922449
>10 8 6 2 =         0.0069259019
>10 8 6 5 =        -0.0013577783
>10 8 6 6 =        -0.0071995564
>10 8 7 0 =        -0.0022602597
>10 8 7 1 =         0.0031756434
>10 8 7 2 =         0.0098887105
>10 8 7 5 =         0.0101746437
>10 8 7 6 =        -0.0116575903
>10 8 7 7 =        -0.0265845753
>10 8 8 0 =         0.0002848132
>10 8 8 1 =         0.0143082926
>10 8 8 2 =        -0.0125187932
>10 8 8 5 =         0.0032574710
>10 8 8 6 =        -0.0080154256
>10 8 8 7 =        -0.0077074788
>10 8 8 8 =        -0.0037333148
>10 8 9 0 =         0.0004565128
>10 8 9 1 =        -0.0184458239
>10 8 9 2 =         0.0155349990
>10 8 9 5 =        -0.0034842272
>10 8 9 6 =         0.0023636726
>10 8 9 7 =         0.0011239390
>10 8 9 8 =        -0.0061703051
>10 8 9 9 =        -0.0226139360
>10 8 10 0 =         0.0007038909
>10 8 10 1 =         0.0002740694
>10 8 10 2 =        -0.0016245429
>10 8 10 5 =         0.0035263680
>10 8 10 6 =         0.0211790358
>10 8 10 7 =        -0.0105303477
>10 8 10 8 =         0.0264837776
>10 8 3 3 =        -0.0415918450
>10 8 4 4 =        -0.0343967557
>10 9 0 0 =        -0.0345418808
>10 9 1 0 =         0.0000653337
>10 9 1 1 =        -0.0238629650
>10 9 2 0 =         0.0001770932
>10 9 2 1 =        -0.0000681298
>10 9 2 2 =        -0.0284299402
>10 9 5 0 =         0.0000334984
>10 9 5 1 =        -0.0114352080
>10 9 5 2 =         0.0088200411
>10 9 5 5 =        -0.0016988961
>10 9 6 0 =         0.0001667183
>10 9 6 1 =        -0.0192231801
>10 9 6 2 =         0.0119650930
>10 9 6 5 =        -0.0035233802
>10 9 6 6 =        -0.0004068346
>10 9 7 0 =        -0.0003382753
>10 9 7 1 =         0.0135088169
>10 9 7 2 =         0.0044076084
>10 9 7 5 =        -0.0005482403
>10 9 7 6 =        -0.0103255836
>10 9 7 7 =        -0.0108017645
>10 9 8 0 =         0.0003802714
>10 9 8 1 =        -0.0107806084
>10 9 8 2 =         0.0009192058
>10 9 8 5 =         0.0045812183
>10 9 8 6 =         0.0038757730
>10 9 8 7 =         0.0016121795
>10 9 8 8 =        -0.0199730218
>10 9 9 0 =        -0.0002438378
>10 9 9 1 =         0.0141673999
>10 9 9 2 =        -0.0034394871
>10 9 9 5 =         0.0006039031
>10 9 9 6 =        -0.0079408790
>10 9 9 7 =         0.0052849193
>10 9 9 8 =        -0.0078466797
>10 9 9 9 =        -0.0168345070
>10 9 10 0 =        -0.0008013815
>10 9 10 1 =         0.0190854061
>10 9 10 2 =         0.0131545373
>10 9 10 5 =         0.0069409806
>10 9 10 6 =         0.0130097183
>10 9 10 7 =        -0.0015024325
>10 9 10 8 =        -0.0026427135
>10 9 10 9 =         0.0311505851
>10 9 3 3 =        -0.0429983478
>10 9 4 4 =         0.0063278913
>10 10 0 0 =         0.7027647086
>10 10 1 0 =         0.0012545789
>10 10 1 1 =         0.6130691774
>10 10 2 0 =         0.0015469045
>10 10 2 1 =         0.0076112524
>10 10 2 2 =         0.5635999600
>10 10 5 0 =        -0.0001183411
>10 10 5 1 =         0.0597175338
>10 10 5 2 =        -0.0376112859
>10 10 5 5 =         0.3654250522
>10 10 6 0 =        -0.0008868286
>10 10 6 1 =         0.0105381953
>10 10 6 2 =        -0.0376374855
>10 10 6 5 =         0.0926650050
>10 10 6 6 =         0.5112887717
>10 10 7 0 =        -0.0012099364
>10 10 7 1 =        -0.0363747245
>10 10 7 2 =        -0.0867579579
>10 10 7 5 =        -0.0263601295
>10 10 7 6 =        -0.0035643646
>10 10 7 7 =         0.4600739686
>10 10 8 0 =         0.0000576055
>10 10 8 1 =        -0.0462623698
>10 10 8 2 =         0.0117045079
>10 10 8 5 =        -0.0589687420
>10 10 8 6 =         0.0068811026
>10 10 8 7 =        -0.0282702375
>10 10 8 8 =         0.4873974667
>10 10 9 0 =        -0.0007595949
>10 10 9 1 =         0.0108011384
>10 10 9 2 =         0.0228264058
>10 10 9 5 =        -0.0064297113
>10 10 9 6 =         0.0050155587
>10 10 9 7 =         0.0118806509
>10 10 9 8 =        -0.0171168112
>10 10 9 9 =         0.5387494867
>10 10 10 0 =         0.0008506026
>10 10 10 1 =        -0.0166516075
>10 10 10 2 =        -0.0032221778
>10 10 10 5 =        -0.0086332165
>10 10 10 6 =        -0.0409482624
>10 10 10 7 =         0.0185745502
>10 10 10 8 =        -0.0358378797
>10 10 10 9 =        -0.0159279308
>10 10 10 10 =         0.5816351745
>10 10 3 3 =         0.6117057197
>10 10 4 4 =         0.5761443810
>11 0 0 0 =         0.0465745687
>11 0 1 0 =         0.0071315927
>11 0 1 1 =         0.0012517381
>11 0 2 0 =         0.0013518835
>11 0 2 1 =         0.0006163679
>11 0 2 2 =         0.0031777047
>11 0 5 0 =         0.0030541884
>11 0 5 1 =         0.0005224121
>11 0 5 2 =        -0.0007252942
>11 0 5 5 =         0.0004328594
>11 0 6 0 =         0.0023928210
>11 0 6 1 =         0.0005041008
>11 0 6 2 =        -0.0018138108
>11 0 6 5 =         0.0007064364
>11 0 6 6 =         0.0013320816
>11 0 7 0 =        -0.0018496234
>11 0 7 1 =        -0.0007098087
>11 0 7 2 =        -0.0019226521
>11 0 7 5 =         0.0003439233
>11 0 7 6 =         0.0014072573
>11 0 7 7 =         0.0017839681
>11 0 8 0 =        -0.0027377376
>11 0 8 1 =         0.0001146782
>11 0 8 2 =         0.0008804933
>11 0 8 5 =        -0.0003752757
>11 0 8 6 =        -0.0010138267
>11 0 8 7 =        -0.0006794280
>11 0 8 8 =         0.0003376701
>11 0 9 0 =        -0.0000073139
>11 0 9 1 =        -0.0014596792
>11 0 9 2 =        -0.0007053991
>11 0 9 5 =        -0.0001779007
>11 0 9 6 =         0.0001024707
>11 0 9 7 =         0.0003374511
>11 0 9 8 =         0.0003265599
>11 0 9 9 =         0.0006384241
>11 0 10 0 =        -0.0006152296
>11 0 10 1 =        -0.0004004882
>11 0 10 2 =         0.0003056661
>11 0 10 5 =        -0.0002327757
>11 0 10 6 =        -0.0002746702
>11 0 10 7 =        -0.0004108636
>11 0 10 8 =         0.0006817304
>11 0 10 9 =        -0.0004638145
>11 0 10 10 =        -0.0004090901
>11 0 11 0 =         0.0011187739
>11 0 3 3 =         0.0005836043
>11 0 4 4 =        -0.0010664573
>11 1 0 0 =         0.0343575583
>11 1 1 0 =         0.0020237254
>11 1 1 1 =         0.0047064004
>11 1 2 0 =        -0.0007268432
>11 1 2 1 =         0.0102325963
>11 1 2 2 =        -0.0062486631
>11 1 5 0 =         0.0011775199
>11 1 5 1 =        -0.0013208505
>11 1 5 2 =         0.0063799293
>11 1 5 5 =        -0.0015878454
>11 1 6 0 =         0.0015886993
>11 1 6 1 =        -0.0055507579
>11 1 6 2 =         0.0047797840
>11 1 6 5 =        -0.0028621918
>11 1 6 6 =        -0.0021365768
>11 1 7 0 =         0.0001026134
>11 1 7 1 =        -0.0034183976
>11 1 7 2 =        -0.0035242035
>11 1 7 5 =         0.0002625435
>11 1 7 6 =         0.0007853371
>11 1 7 7 =         0.0003551802
>11 1 8 0 =        -0.0009643979
>11 1 8 1 =        -0.0063463774
>11 1 8 2 =        -0.0022664391
>11 1 8 5 =        -0.0024733465
>11 1 8 6 =        -0.0006078709
>11 1 8 7 =         0.0045167797
>11 1 8 8 =        -0.0000184788
>11 1 9 0 =        -0.0012173311
>11 1 9 1 =         0.0152464511
>11 1 9 2 =         0.0072239802
>11 1 9 5 =         0.0066791176
>11 1 9 6 =         0.0083280305
>11 1 9 7 =        -0.0032473601
>11 1 9 8 =        -0.0034558841
>11 1 9 9 =        -0.0081802964
>11 1 10 0 =        -0.0006797628
>11 1 10 1 =         0.0024336364
>11 1 10 2 =         0.0040896707
>11 1 10 5 =         0.0000866911
>11 1 10 6 =        -0.0023960375
>11 1 10 7 =         0.0019913685
>11 1 10 8 =        -0.0073422743
>11 1 10 9 =         0.0085249190
>11 1 10 10 =         0.0114591980
>11 1 11 0 =        -0.0010288736
>11 1 11 1 =         0.0241823957
>11 1 3 3 =         0.0100715924
>11 1 4 4 =         0.0174345054
>11 2 0 0 =         0.0110748136
>11 2 1 0 =        -0.0010313490
>11 2 1 1 =         0.0190776224
>11 2 2 0 =         0.0075013623
>11 2 2 1 =        -0.0321697079
>11 2 2 2 =        -0.0289166742
>11 2 5 0 =        -0.0028723917
>11 2 5 1 =         0.0149300123
>11 2 5 2 =        -0.0019784920
>11 2 5 5 =         0.0064919362
>11 2 6 0 =        -0.0062080113
>11 2 6 1 =         0.0153019934
>11 2 6 2 =        -0.0009286993
>11 2 6 5 =         0.0070510559
>11 2 6 6 =         0.0064539095
>11 2 7 0 =        -0.0054883408
>11 2 7 1 =         0.0053821097
>11 2 7 2 =         0.0072978129
>11 2 7 5 =        -0.0008321146
>11 2 7 6 =        -0.0137448067
>11 2 7 7 =        -0.0194179428
>11 2 8 0 =         0.0040973785
>11 2 8 1 =        -0.0097901752
>11 2 8 2 =         0.0004472060
>11 2 8 5 =        -0.0033274202
>11 2 8 6 =         0.0000896538
>11 2 8 7 =        -0.0036178913
>11 2 8 8 =         0.0170189338
>11 2 9 0 =        -0.0002889797
>11 2 9 1 =         0.0146603413
>11 2 9 2 =         0.0363948770
>11 2 9 5 =        -0.0148224440
>11 2 9 6 =        -0.0174607128
>11 2 9 7 =         0.0048882169
>11 2 9 8 =         0.0022480258
>11 2 9 9 =        -0.0102510201
>11 2 10 0 =         0.0016514883
>11 2 10 1 =         0.0042762070
>11 2 10 2 =        -0.0041717863
>11 2 10 5 =        -0.0019182613
>11 2 10 6 =        -0.0048229821
>11 2 10 7 =         0.0042250458
>11 2 10 8 =        -0.0001175119
>11 2 10 9 =         0.0011035381
>11 2 10 10 =         0.0097603104
>11 2 11 0 =        -0.0008114187
>11 2 11 1 =         0.0003347722
>11 2 11 2 =         0.0380620959
>11 2 3 3 =         0.0112035455
>11 2 4 4 =         0.0182235327
>11 5 0 0 =         0.0147906053
>11 5 1 0 =         0.0013707170
>11 5 1 1 =        -0.0043349102
>11 5 2 0 =        -0.0029823741
>11 5 2 1 =         0.0214572307
>11 5 2 2 =         0.0034898905
>11 5 5 0 =         0.0015893811
>11 5 5 1 =        -0.0053050775
>11 5 5 2 =        -0.0001729882
>11 5 5 5 =        -0.0058965070
>11 5 6 0 =         0.0029420040
>11 5 6 1 =        -0.0071268561
>11 5 6 2 =        -0.0009247747
>11 5 6 5 =        -0.0034465867
>11 5 6 6 =        -0.0029225886
>11 5 7 0 =         0.0019635796
>11 5 7 1 =        -0.0003389454
>11 5 7 2 =        -0.0064970304
>11 5 7 5 =        -0.0056458881
>11 5 7 6 =         0.0033530468
>11 5 7 7 =         0.0098106722
>11 5 8 0 =        -0.0019127898
>11 5 8 1 =        -0.0058467172
>11 5 8 2 =         0.0061382815
>11 5 8 5 =         0.0042882480
>11 5 8 6 =         0.0073089522
>11 5 8 7 =         0.0035332331
>11 5 8 8 =        -0.0112796107
>11 5 9 0 =        -0.0004818163
>11 5 9 1 =         0.0142064894
>11 5 9 2 =        -0.0212662830
>11 5 9 5 =         0.0003200651
>11 5 9 6 =        -0.0060390149
>11 5 9 7 =         0.0025980769
>11 5 9 8 =         0.0023418315
>11 5 9 9 =        -0.0018473333
>11 5 10 0 =        -0.0008870752
>11 5 10 1 =         0.0007362529
>11 5 10 2 =         0.0034574757
>11 5 10 5 =        -0.0010261365
>11 5 10 6 =        -0.0048230984
>11 5 10 7 =         0.0028476237
>11 5 10 8 =        -0.0058048482
>11 5 10 9 =         0.0026779307
>11 5 10 10 =         0.0013743034
>11 5 11 0 =        -0.0001671771
>11 5 11 1 =        -0.0021220123
>11 5 11 2 =        -0.0003440900
>11 5 11 5 =         0.0150846447
>11 5 3 3 =         0.0036395008
>11 5 4 4 =         0.0057042033
>11 6 0 0 =        -0.0063213861
>11 6 1 0 =         0.0014914269
>11 6 1 1 =        -0.0216014905
>11 6 2 0 =        -0.0045953405
>11 6 2 1 =         0.0282905329
>11 6 2 2 =        -0.0081821066
>11 6 5 0 =         0.0021669659
>11 6 5 1 =        -0.0105545283
>11 6 5 2 =         0.0003953073
>11 6 5 5 =        -0.0132415148
>11 6 6 0 =         0.0042210793
>11 6 6 1 =        -0.0109364401
>11 6 6 2 =         0.0014297557
>11 6 6 5 =        -0.0066152594
>11 6 6 6 =        -0.0100592561
>11 6 7 0 =         0.0031866206
>11 6 7 1 =         0.0035553834
>11 6 7 2 =        -0.0049885130
>11 6 7 5 =        -0.0090278988
>11 6 7 6 =         0.0036705038
>11 6 7 7 =         0.0091373627
>11 6 8 0 =        -0.0028221697
>11 6 8 1 =        -0.0056792613
>11 6 8 2 =         0.0105573024
>11 6 8 5 =         0.0093003317
>11 6 8 6 =         0.0130555559
>11 6 8 7 =         0.0048850938
>11 6 8 8 =        -0.0269570933
>11 6 9 0 =        -0.0004096635
>11 6 9 1 =         0.0212146717
>11 6 9 2 =        -0.0313568493
>11 6 9 5 =        -0.0011293755
>11 6 9 6 =        -0.0138728643
>11 6 9 7 =         0.0077374415
>11 6 9 8 =         0.0041675361
>11 6 9 9 =        -0.0138626502
>11 6 10 0 =        -0.0011251741
>11 6 10 1 =         0.0000420195
>11 6 10 2 =         0.0041070149
>11 6 10 5 =        -0.0007738393
>11 6 10 6 =        -0.0049100661
>11 6 10 7 =         0.0048498493
>11 6 10 8 =        -0.0065353673
>11 6 10 9 =         0.0025427117
>11 6 10 10 =        -0.0095537986
>11 6 11 0 =         0.0000807612
>11 6 11 1 =        -0.0093782571
>11 6 11 2 =         0.0029583387
>11 6 11 5 =         0.0208040800
>11 6 11 6 =         0.0386766775
>11 6 3 3 =        -0.0094080365
>11 6 4 4 =        -0.0064788220
>11 7 0 0 =        -0.0095722765
>11 7 1 0 =         0.0000023604
>11 7 1 1 =        -0.0087118512
>11 7 2 0 =        -0.0022070756
>11 7 2 1 =         0.0055985770
>11 7 2 2 =         0.0046441883
>11 7 5 0 =         0.0007002894
>11 7 5 1 =        -0.0000703767
>11 7 5 2 =        -0.0035975495
>11 7 5 5 =        -0.0084003895
>11 7 6 0 =         0.0016936369
>11 7 6 1 =         0.0043471323
>11 7 6 2 =        -0.0064629444
>11 7 6 5 =        -0.0055707678
>11 7 6 6 =        -0.0158061252
>11 7 7 0 =         0.0017540559
>11 7 7 1 =        -0.0049008527
>11 7 7 2 =        -0.0000869396
>11 7 7 5 =         0.0014509552
>11 7 7 6 =         0.0112888496
>11 7 7 7 =         0.0001189370
>11 7 8 0 =        -0.0012160851
>11 7 8 1 =         0.0081353059
>11 7 8 2 =        -0.0022871319
>11 7 8 5 =        -0.0011117975
>11 7 8 6 =        -0.0030193356
>11 7 8 7 =         0.0013668628
>11 7 8 8 =        -0.0041171162
>11 7 9 0 =         0.0004005997
>11 7 9 1 =        -0.0094172337
>11 7 9 2 =        -0.0022955172
>11 7 9 5 =         0.0024658598
>11 7 9 6 =         0.0088239807
>11 7 9 7 =        -0.0014107336
>11 7 9 8 =         0.0031846646
>11 7 9 9 =        -0.0068418194
>11 7 10 0 =        -0.0004221348
>11 7 10 1 =        -0.0004953178
>11 7 10 2 =        -0.0015665436
>11 7 10 5 =        -0.0032857195
>11 7 10 6 =        -0.0037439813
>11 7 10 7 =        -0.0002635315
>11 7 10 8 =         0.0018280271
>11 7 10 9 =        -0.0043636815
>11 7 10 10 =        -0.0101851604
>11 7 11 0 =         0.0005632072
>11 7 11 1 =         0.0005079482
>11 7 11 2 =        -0.0063738253
>11 7 11 5 =        -0.0059905276
>11 7 11 6 =        -0.0097123776
>11 7 11 7 =         0.0120760211
>11 7 3 3 =        -0.0044003413
>11 7 4 4 =        -0.0184918594
>11 8 0 0 =        -0.0558773202
>11 8 1 0 =        -0.0011197973
>11 8 1 1 =        -0.0245726400
>11 8 2 0 =         0.0013579109
>11 8 2 1 =        -0.0133694872
>11 8 2 2 =        -0.0234451561
>11 8 5 0 =        -0.0009179596
>11 8 5 1 =        -0.0096557236
>11 8 5 2 =         0.0086274792
>11 8 5 5 =         0.0039807868
>11 8 6 0 =        -0.0016080753
>11 8 6 1 =        -0.0104036590
>11 8 6 2 =         0.0163447423
>11 8 6 5 =         0.0015801723
>11 8 6 6 =         0.0069893492
>11 8 7 0 =        -0.0008368756
>11 8 7 1 =         0.0117121293
>11 8 7 2 =         0.0074807180
>11 8 7 5 =         0.0013543083
>11 8 7 6 =        -0.0135907451
>11 8 7 7 =        -0.0139329131
>11 8 8 0 =         0.0010877193
>11 8 8 1 =         0.0045956339
>11 8 8 2 =        -0.0002147342
>11 8 8 5 =         0.0055723646
>11 8 8 6 =         0.0006846710
>11 8 8 7 =        -0.0004297896
>11 8 8 8 =        -0.0143620245
>11 8 9 0 =         0.0004209633
>11 8 9 1 =        -0.0042855523
>11 8 9 2 =         0.0072188449
>11 8 9 5 =        -0.0006702317
>11 8 9 6 =         0.0005302616
>11 8 9 7 =         0.0024961927
>11 8 9 8 =        -0.0038199344
>11 8 9 9 =        -0.0085186229
>11 8 10 0 =         0.0006652348
>11 8 10 1 =        -0.0028779361
>11 8 10 2 =         0.0018099601
>11 8 10 5 =         0.0069733850
>11 8 10 6 =         0.0170936962
>11 8 10 7 =        -0.0035942448
>11 8 10 8 =         0.0054483843
>11 8 10 9 =         0.0035162697
>11 8 10 10 =        -0.0128903417
>11 8 11 0 =         0.0002548698
>11 8 11 1 =        -0.0014621996
>11 8 11 2 =        -0.0045283146
>11 8 11 5 =        -0.0022800136
>11 8 11 6 =         0.0005270757
>11 8 11 7 =        -0.0038746763
>11 8 11 8 =         0.0155334149
>11 8 3 3 =        -0.0316095322
>11 8 4 4 =        -0.0145371515
>11 9 0 0 =         0.1355818132
>11 9 1 0 =         0.0010937509
>11 9 1 1 =         0.0668832925
>11 9 2 0 =        -0.0042256623
>11 9 2 1 =         0.0555686562
>11 9 2 2 =         0.1016289568
>11 9 5 0 =         0.0017345627
>11 9 5 1 =         0.0229688008
>11 9 5 2 =        -0.0353657753
>11 9 5 5 =        -0.0122680821
>11 9 6 0 =         0.0035616773
>11 9 6 1 =         0.0280470349
>11 9 6 2 =        -0.0491905726
>11 9 6 5 =        -0.0002194930
>11 9 6 6 =        -0.0095671845
>11 9 7 0 =         0.0029755384
>11 9 7 1 =        -0.0257451285
>11 9 7 2 =        -0.0210651225
>11 9 7 5 =        -0.0107607964
>11 9 7 6 =         0.0521593672
>11 9 7 7 =         0.0650536617
>11 9 8 0 =        -0.0023953779
>11 9 8 1 =        -0.0186979292
>11 9 8 2 =         0.0165476506
>11 9 8 5 =        -0.0146109008
>11 9 8 6 =        -0.0069591078
>11 9 8 7 =         0.0081513268
>11 9 8 8 =         0.0114720899
>11 9 9 0 =         0.0003587904
>11 9 9 1 =        -0.0101835647
>11 9 9 2 =        -0.0450523524
>11 9 9 5 =         0.0051885302
>11 9 9 6 =        -0.0041083907
>11 9 9 7 =        -0.0098568593
>11 9 9 8 =         0.0092820612
>11 9 9 9 =         0.0515570125
>11 9 10 0 =        -0.0011518052
>11 9 10 1 =         0.0021211522
>11 9 10 2 =        -0.0015615671
>11 9 10 5 =        -0.0168164022
>11 9 10 6 =        -0.0464057519
>11 9 10 7 =         0.0118539907
>11 9 10 8 =        -0.0179951149
>11 9 10 9 =        -0.0164426026
>11 9 10 10 =         0.0327249699
>11 9 11 0 =         0.0005753212
>11 9 11 1 =        -0.0075337616
>11 9 11 2 =        -0.0106684153
>11 9 11 5 =         0.0059699410
>11 9 11 6 =         0.0050150729
>11 9 11 7 =         0.0100130347
>11 9 11 8 =        -0.0239456454
>11 9 11 9 =         0.0865287265
>11 9 3 3 =         0.0829119330
>11 9 4 4 =         0.0292421812
>11 10 0 0 =         0.0241115436
>11 10 1 0 =         0.0000471232
>11 10 1 1 =         0.0116023935
>11 10 2 0 =        -0.0009498785
>11 10 2 1 =         0.0174468760
>11 10 2 2 =         0.0106178888
>11 10 5 0 =         0.0003194692
>11 10 5 1 =         0.0022423034
>11 10 5 2 =        -0.0058667390
>11 10 5 5 =        -0.0048353282
>11 10 6 0 =         0.0008417997
>11 10 6 1 =        -0.0000021249
>11 10 6 2 =        -0.0077695280
>11 10 6 5 =        -0.0009920875
>11 10 6 6 =        -0.0015609001
>11 10 7 0 =         0.0005848282
>11 10 7 1 =        -0.0006390315
>11 10 7 2 =        -0.0044064268
>11 10 7 5 =        -0.0066632731
>11 10 7 6 =         0.0079051701
>11 10 7 7 =         0.0132368174
>11 10 8 0 =        -0.0001941592
>11 10 8 1 =        -0.0125492315
>11 10 8 2 =         0.0066044964
>11 10 8 5 =        -0.0001594380
>11 10 8 6 =         0.0041944628
>11 10 8 7 =         0.0041002841
>11 10 8 8 =        -0.0042546227
>11 10 9 0 =        -0.0003044893
>11 10 9 1 =         0.0135603314
>11 10 9 2 =        -0.0117925458
>11 10 9 5 =        -0.0015646732
>11 10 9 6 =        -0.0102900379
>11 10 9 7 =         0.0018204279
>11 10 9 8 =         0.0006635110
>11 10 9 9 =         0.0019480522
>11 10 10 0 =        -0.0006514554
>11 10 10 1 =         0.0079928919
>11 10 10 2 =         0.0062339987
>11 10 10 5 =        -0.0027398477
>11 10 10 6 =        -0.0117417099
>11 10 10 7 =         0.0051837703
>11 10 10 8 =        -0.0099884686
>11 10 10 9 =         0.0059566860
>11 10 10 10 =         0.0099698418
>11 10 11 0 =        -0.0004189852
>11 10 11 1 =         0.0029514908
>11 10 11 2 =         0.0082153203
>11 10 11 5 =         0.0099410039
>11 10 11 6 =         0.0141769680
>11 10 11 7 =        -0.0037133764
>11 10 11 8 =        -0.0053155226
>11 10 11 9 =         0.0128176453
>11 10 11 10 =         0.0186869442
>11 10 3 3 =         0.0113873425
>11 10 4 4 =         0.0180462084
>11 11 0 0 =         0.5972414955
>11 11 1 0 =         0.0004232269
>11 11 1 1 =         0.5594277328
>11 11 2 0 =         0.0014774904
>11 11 2 1 =        -0.0210000857
>11 11 2 2 =         0.5365942959
>11 11 5 0 =        -0.0003361995
>11 11 5 1 =         0.0366778932
>11 11 5 2 =        -0.0235233290
>11 11 5 5 =         0.3743376568
>11 11 6 0 =        -0.0006893840
>11 11 6 1 =        -0.0208477422
>11 11 6 2 =        -0.0156580930
>11 11 6 5 =         0.0922009694
>11 11 6 6 =         0.5161045523
>11 11 7 0 =        -0.0010783103
>11 11 7 1 =        -0.0160080767
>11 11 7 2 =        -0.0711293577
>11 11 7 5 =        -0.0201337312
>11 11 7 6 =        -0.0231999956
>11 11 7 7 =         0.4367420602
>11 11 8 0 =         0.0005956861
>11 11 8 1 =        -0.0343058154
>11 11 8 2 =        -0.0040575466
>11 11 8 5 =        -0.0485328330
>11 11 8 6 =         0.0024162261
>11 11 8 7 =        -0.0353381918
>11 11 8 8 =         0.4648866125
>11 11 9 0 =         0.0003780931
>11 11 9 1 =        -0.0230933968
>11 11 9 2 =         0.0232561752
>11 11 9 5 =        -0.0083166270
>11 11 9 6 =         0.0019424389
>11 11 9 7 =         0.0184054137
>11 11 9 8 =        -0.0396170419
>11 11 9 9 =         0.5380685275
>11 11 10 0 =        -0.0005067277
>11 11 10 1 =         0.0093595539
>11 11 10 2 =         0.0110056880
>11 11 10 5 =         0.0097501886
>11 11 10 6 =         0.0046906307
>11 11 10 7 =        -0.0028219157
>11 11 10 8 =        -0.0092825688
>11 11 10 9 =         0.0014954443
>11 11 10 10 =         0.5143109812
>11 11 11 0 =         0.0001720053
>11 11 11 1 =        -0.0016233540
>11 11 11 2 =        -0.0093862860
>11 11 11 5 =        -0.0023150980
>11 11 11 6 =        -0.0120095354
>11 11 11 7 =        -0.0161427851
>11 11 11 8 =         0.0086121688
>11 11 11 9 =        -0.0037531774
>11 11 11 10 =        -0.0014393576
>11 11 11 11 =         0.5577778529
>11 11 3 3 =         0.5074817012
>11 11 4 4 =         0.5492863804
>12 0 0 0 =         0.3216400259
>12 0 1 0 =         0.0519200917
>12 0 1 1 =         0.0047788724
>12 0 2 0 =         0.0020166297
>12 0 2 1 =         0.0157336637
>12 0 2 2 =         0.0121193474
>12 0 5 0 =         0.0248923001
>12 0 5 1 =        -0.0010010301
>12 0 5 2 =         0.0015765514
>12 0 5 5 =        -0.0017391832
>12 0 6 0 =         0.0241422210
>12 0 6 1 =        -0.0044082695
>12 0 6 2 =        -0.0037221915
>12 0 6 5 =        -0.0016272062
>12 0 6 6 =        -0.0004742907
>12 0 7 0 =        -0.0068376465
>12 0 7 1 =        -0.0079317422
>12 0 7 2 =        -0.0105514844
>12 0 7 5 =        -0.0009155114
>12 0 7 6 =         0.0061984531
>12 0 7 7 =         0.0109150415
>12 0 8 0 =        -0.0231096646
>12 0 8 1 =         0.0013802144
>12 0 8 2 =         0.0005666836
>12 0 8 5 =         0.0009411570
>12 0 8 6 =         0.0004083024
>12 0 8 7 =         0.0000562332
>12 0 8 8 =        -0.0027088587
>12 0 9 0 =        -0.0020743046
>12 0 9 1 =         0.0013382920
>12 0 9 2 =        -0.0075214695
>12 0 9 5 =         0.0024250239
>12 0 9 6 =         0.0028621548
>12 0 9 7 =         0.0013734851
>12 0 9 8 =        -0.0005033691
>12 0 9 9 =        -0.0007579087
>12 0 10 0 =        -0.0065720515
>12 0 10 1 =        -0.0002984782
>12 0 10 2 =         0.0020007098
>12 0 10 5 =        -0.0006280912
>12 0 10 6 =        -0.0019550608
>12 0 10 7 =        -0.0008690237
>12 0 10 8 =        -0.0000853627
>12 0 10 9 =        -0.0002342301
>12 0 10 10 =         0.0002425350
>12 0 11 0 =         0.0062781201
>12 0 11 1 =         0.0019040854
>12 0 11 2 =        -0.0039194274
>12 0 11 5 =         0.0023166343
>12 0 11 6 =         0.0031691521
>12 0 11 7 =         0.0009618926
>12 0 11 8 =        -0.0013346172
>12 0 11 9 =         0.0020691327
>12 0 11 10 =         0.0001599849
>12 0 11 11 =        -0.0006279052
>12 0 12 0 =         0.0500404957
>12 0 3 3 =         0.0060692942
>12 0 4 4 =         0.0007077341
>12 1 0 0 =         0.2197185446
>12 1 1 0 =         0.0124980254
>12 1 1 1 =         0.0296815113
>12 1 2 0 =         0.0095570720
>12 1 2 1 =         0.0131064049
>12 1 2 2 =         0.0325446083
>12 1 5 0 =         0.0026987020
>12 1 5 1 =         0.0179612508
>12 1 5 2 =        -0.0133236553
>12 1 5 5 =         0.0099550770
>12 1 6 0 =        -0.0019230972
>12 1 6 1 =         0.0256003384
>12 1 6 2 =        -0.0354380198
>12 1 6 5 =         0.0125279112
>12 1 6 6 =         0.0078040441
>12 1 7 0 =        -0.0093135292
>12 1 7 1 =        -0.0154235546
>12 1 7 2 =        -0.0180690811
>12 1 7 5 =         0.0028541487
>12 1 7 6 =         0.0244532501
>12 1 7 7 =         0.0170142566
>12 1 8 0 =        -0.0010465377
>12 1 8 1 =        -0.0231445488
>12 1 8 2 =         0.0122599111
>12 1 8 5 =        -0.0127589057
>12 1 8 6 =        -0.0217057745
>12 1 8 7 =         0.0006315695
>12 1 8 8 =         0.0069547048
>12 1 9 0 =         0.0000833318
>12 1 9 1 =        -0.0037747913
>12 1 9 2 =        -0.0063779115
>12 1 9 5 =        -0.0020046207
>12 1 9 6 =        -0.0075501710
>12 1 9 7 =        -0.0015158578
>12 1 9 8 =         0.0045974300
>12 1 9 9 =        -0.0026611378
>12 1 10 0 =         0.0001269369
>12 1 10 1 =        -0.0026565221
>12 1 10 2 =         0.0118679882
>12 1 10 5 =        -0.0056182756
>12 1 10 6 =        -0.0119452118
>12 1 10 7 =        -0.0006902987
>12 1 10 8 =         0.0029771156
>12 1 10 9 =         0.0006179416
>12 1 10 10 =         0.0019194225
>12 1 11 0 =         0.0012935283
>12 1 11 1 =         0.0016257762
>12 1 11 2 =         0.0050859995
>12 1 11 5 =         0.0006328423
>12 1 11 6 =        -0.0007940583
>12 1 11 7 =        -0.0001225142
>12 1 11 8 =        -0.0068265120
>12 1 11 9 =         0.0201776996
>12 1 11 10 =         0.0063372508
>12 1 11 11 =        -0.0014386950
>12 1 12 0 =         0.0055799218
>12 1 12 1 =         0.0470236598
>12 1 3 3 =         0.0328850737
>12 1 4 4 =         0.0120799045
>12 2 0 0 =        -0.0486689749
>12 2 1 0 =         0.0000757894
>12 2 1 1 =        -0.0005481818
>12 2 2 0 =        -0.0070883362
>12 2 2 1 =         0.0012126406
>12 2 2 2 =        -0.0002272506
>12 2 5 0 =         0.0025312640
>12 2 5 1 =        -0.0076805621
>12 2 5 2 =         0.0046179199
>12 2 5 5 =        -0.0062846225
>12 2 6 0 =         0.0061071795
>12 2 6 1 =        -0.0213645342
>12 2 6 2 =         0.0125577234
>12 2 6 5 =        -0.0066180656
>12 2 6 6 =         0.0009376291
>12 2 7 0 =         0.0058153726
>12 2 7 1 =         0.0040146335
>12 2 7 2 =        -0.0000944981
>12 2 7 5 =        -0.0037394125
>12 2 7 6 =        -0.0095696463
>12 2 7 7 =         0.0030011126
>12 2 8 0 =        -0.0029995190
>12 2 8 1 =         0.0035876825
>12 2 8 2 =        -0.0090773085
>12 2 8 5 =         0.0052529648
>12 2 8 6 =         0.0112604860
>12 2 8 7 =        -0.0001464968
>12 2 8 8 =        -0.0023204743
>12 2 9 0 =        -0.0007671222
>12 2 9 1 =         0.0010462054
>12 2 9 2 =         0.0000500169
>12 2 9 5 =         0.0016803051
>12 2 9 6 =         0.0034764788
>12 2 9 7 =         0.0026651186
>12 2 9 8 =        -0.0089347515
>12 2 9 9 =         0.0103818730
>12 2 10 0 =        -0.0019804753
>12 2 10 1 =         0.0158787415
>12 2 10 2 =         0.0034263818
>12 2 10 5 =         0.0021447410
>12 2 10 6 =         0.0036027401
>12 2 10 7 =        -0.0005048083
>12 2 10 8 =        -0.0027482529
>12 2 10 9 =         0.0054137073
>12 2 10 10 =         0.0000718352
>12 2 11 0 =        -0.0005852566
>12 2 11 1 =         0.0052639997
>12 2 11 2 =        -0.0017418915
>12 2 11 5 =         0.0016051266
>12 2 11 6 =         0.0006823837
>12 2 11 7 =         0.0002121540
>12 2 11 8 =         0.0000392480
>12 2 11 9 =        -0.0065548651
>12 2 11 10 =         0.0022156337
>12 2 11 11 =         0.0095842846
>12 2 12 0 =         0.0041899999
>12 2 12 1 =        -0.0213712476
>12 2 12 2 =         0.0243896638
>12 2 3 3 =        -0.0152728879
>12 2 4 4 =         0.0162437655
>12 5 0 0 =         0.1396136764
>12 5 1 0 =         0.0060862783
>12 5 1 1 =         0.0311800347
>12 5 2 0 =         0.0079599233
>12 5 2 1 =         0.0002408031
>12 5 2 2 =         0.0228527801
>12 5 5 0 =         0.0001852767
>12 5 5 1 =         0.0210635659
>12 5 5 2 =        -0.0162595822
>12 5 5 5 =        -0.0036503168
>12 5 6 0 =        -0.0036401774
>12 5 6 1 =         0.0225349533
>12 5 6 2 =        -0.0259815449
>12 5 6 5 =         0.0057276651
>12 5 6 6 =         0.0003993509
>12 5 7 0 =        -0.0071640681
>12 5 7 1 =        -0.0083423652
>12 5 7 2 =        -0.0139300946
>12 5 7 5 =         0.0021342382
>12 5 7 6 =         0.0151018532
>12 5 7 7 =         0.0081861837
>12 5 8 0 =         0.0009292984
>12 5 8 1 =        -0.0194848881
>12 5 8 2 =         0.0123828592
>12 5 8 5 =        -0.0109151455
>12 5 8 6 =        -0.0155815466
>12 5 8 7 =        -0.0011154818
>12 5 8 8 =         0.0063441275
>12 5 9 0 =         0.0003226238
>12 5 9 1 =        -0.0047210763
>12 5 9 2 =         0.0015854507
>12 5 9 5 =        -0.0031967906
>12 5 9 6 =        -0.0061076514
>12 5 9 7 =        -0.0027529536
>12 5 9 8 =         0.0036221987
>12 5 9 9 =         0.0026819658
>12 5 10 0 =         0.0008388134
>12 5 10 1 =        -0.0013628202
>12 5 10 2 =        -0.0018096808
>12 5 10 5 =        -0.0096226090
>12 5 10 6 =        -0.0209060733
>12 5 10 7 =         0.0034406857
>12 5 10 8 =        -0.0031573986
>12 5 10 9 =        -0.0039763980
>12 5 10 10 =        -0.0021072105
>12 5 11 0 =         0.0008140743
>12 5 11 1 =        -0.0005930347
>12 5 11 2 =         0.0047924361
>12 5 11 5 =        -0.0009186104
>12 5 11 6 =        -0.0027158515
>12 5 11 7 =         0.0015174417
>12 5 11 8 =        -0.0062933350
>12 5 11 9 =         0.0195463607
>12 5 11 10 =         0.0030243764
>12 5 11 11 =        -0.0133506142
>12 5 12 0 =         0.0010976384
>12 5 12 1 =         0.0167184939
>12 5 12 2 =        -0.0064228560
>12 5 12 5 =         0.0222840871
>12 5 3 3 =         0.0306544206
>12 5 4 4 =         0.0123734297
>12 6 0 0 =         0.2276080427
>12 6 1 0 =         0.0056229274
>12 6 1 1 =         0.1117651198
>12 6 2 0 =         0.0140001394
>12 6 2 1 =        -0.0298501248
>12 6 2 2 =         0.0780421285
>12 6 5 0 =        -0.0020365566
>12 6 5 1 =         0.0384460119
>12 6 5 2 =        -0.0267303145
>12 6 5 5 =         0.0209396680
>12 6 6 0 =        -0.0085528297
>12 6 6 1 =         0.0228341559
>12 6 6 2 =        -0.0273676193
>12 6 6 5 =         0.0282823238
>12 6 6 6 =         0.0663903243
>12 6 7 0 =        -0.0118328808
>12 6 7 1 =        -0.0029307361
>12 6 7 2 =        -0.0271194322
>12 6 7 5 =        -0.0019387190
>12 6 7 6 =         0.0034035689
>12 6 7 7 =         0.0443426423
>12 6 8 0 =         0.0037777429
>12 6 8 1 =        -0.0331040168
>12 6 8 2 =         0.0142196851
>12 6 8 5 =        -0.0292361834
>12 6 8 6 =        -0.0166891016
>12 6 8 7 =        -0.0151825409
>12 6 8 8 =         0.0655534610
>12 6 9 0 =         0.0008273973
>12 6 9 1 =        -0.0135270466
>12 6 9 2 =         0.0224390794
>12 6 9 5 =        -0.0105790037
>12 6 9 6 =        -0.0083721131
>12 6 9 7 =        -0.0003954987
>12 6 9 8 =        -0.0039828484
>12 6 9 9 =         0.0660115514
>12 6 10 0 =         0.0019569559
>12 6 10 1 =         0.0063133281
>12 6 10 2 =        -0.0050555210
>12 6 10 5 =        -0.0113399199
>12 6 10 6 =        -0.0227887475
>12 6 10 7 =         0.0032513609
>12 6 10 8 =        -0.0021239844
>12 6 10 9 =        -0.0022481816
>12 6 10 10 =         0.0492691496
>12 6 11 0 =         0.0010143778
>12 6 11 1 =        -0.0020533270
>12 6 11 2 =         0.0100805146
>12 6 11 5 =        -0.0051577600
>12 6 11 6 =        -0.0099861299
>12 6 11 7 =         0.0002203754
>12 6 11 8 =        -0.0050106856
>12 6 11 9 =         0.0136027638
>12 6 11 10 =         0.0000723359
>12 6 11 11 =         0.0433622099
>12 6 12 0 =        -0.0021431695
>12 6 12 1 =         0.0048135203
>12 6 12 2 =         0.0041890758
>12 6 12 5 =         0.0267868972
>12 6 12 6 =         0.0672331787
>12 6 3 3 =         0.0870934714
>12 6 4 4 =         0.0892287038
>12 7 0 0 =        -0.0152878704
>12 7 1 0 =        -0.0007359172
>12 7 1 1 =        -0.0270450898
>12 7 2 0 =         0.0027343157
>12 7 2 1 =         0.0054989903
>12 7 2 2 =        -0.0210346686
>12 7 5 0 =        -0.0013421059
>12 7 5 1 =        -0.0018855256
>12 7 5 2 =        -0.0006728371
>12 7 5 5 =        -0.0064220020
>12 7 6 0 =        -0.0028080749
>12 7 6 1 =         0.0106232476
>12 7 6 2 =        -0.0047917337
>12 7 6 5 =        -0.0047880404
>12 7 6 6 =        -0.0235280501
>12 7 7 0 =        -0.0023024167
>12 7 7 1 =         0.0000840071
>12 7 7 2 =         0.0078119610
>12 7 7 5 =         0.0009000799
>12 7 7 6 =         0.0084519018
>12 7 7 7 =        -0.0136352183
>12 7 8 0 =         0.0013798444
>12 7 8 1 =         0.0030284088
>12 7 8 2 =         0.0037162989
>12 7 8 5 =         0.0037655158
>12 7 8 6 =        -0.0050932812
>12 7 8 7 =         0.0048021965
>12 7 8 8 =        -0.0197930608
>12 7 9 0 =         0.0004171874
>12 7 9 1 =         0.0018225493
>12 7 9 2 =        -0.0047475048
>12 7 9 5 =        -0.0001004740
>12 7 9 6 =        -0.0023378327
>12 7 9 7 =        -0.0018674783
>12 7 9 8 =         0.0065378576
>12 7 9 9 =        -0.0241089299
>12 7 10 0 =         0.0009527603
>12 7 10 1 =        -0.0067927390
>12 7 10 2 =         0.0008862085
>12 7 10 5 =        -0.0014963547
>12 7 10 6 =        -0.0016453596
>12 7 10 7 =         0.0031346399
>12 7 10 8 =         0.0014022882
>12 7 10 9 =        -0.0030762884
>12 7 10 10 =        -0.0187775935
>12 7 11 0 =         0.0002768258
>12 7 11 1 =        -0.0021471419
>12 7 11 2 =         0.0011933652
>12 7 11 5 =         0.0008074561
>12 7 11 6 =         0.0028237888
>12 7 11 7 =         0.0015566378
>12 7 11 8 =         0.0003009761
>12 7 11 9 =         0.0041322866
>12 7 11 10 =         0.0018515303
>12 7 11 11 =        -0.0237512343
>12 7 12 0 =        -0.0024449010
>12 7 12 1 =         0.0120122188
>12 7 12 2 =        -0.0121180115
>12 7 12 5 =         0.0014407736
>12 7 12 6 =        -0.0125360331
>12 7 12 7 =         0.0122297275
>12 7 3 3 =        -0.0152507404
>12 7 4 4 =        -0.0327287764
>12 8 0 0 =        -0.2179722434
>12 8 1 0 =        -0.0056387505
>12 8 1 1 =        -0.0877438040
>12 8 2 0 =        -0.0079870406
>12 8 2 1 =        -0.0057643225
>12 8 2 2 =        -0.0778355035
>12 8 5 0 =         0.0001356970
>12 8 5 1 =        -0.0288628681
>12 8 5 2 =         0.0222176845
>12 8 5 5 =        -0.0192222742
>12 8 6 0 =         0.0039652655
>12 8 6 1 =        -0.0266044444
>12 8 6 2 =         0.0323274246
>12 8 6 5 =        -0.0249880361
>12 8 6 6 =        -0.0461014066
>12 8 7 0 =         0.0072450048
>12 8 7 1 =         0.0155578160
>12 8 7 2 =         0.0269477689
>12 8 7 5 =         0.0049548093
>12 8 7 6 =        -0.0203184505
>12 8 7 7 =        -0.0463161083
>12 8 8 0 =        -0.0009945330
>12 8 8 1 =         0.0244829325
>12 8 8 2 =        -0.0152771529
>12 8 8 5 =         0.0192213099
>12 8 8 6 =         0.0165387234
>12 8 8 7 =         0.0026181635
>12 8 8 8 =        -0.0415520238
>12 8 9 0 =        -0.0002633396
>12 8 9 1 =         0.0051687977
>12 8 9 2 =        -0.0032639637
>12 8 9 5 =         0.0035207649
>12 8 9 6 =         0.0038747961
>12 8 9 7 =         0.0024002540
>12 8 9 8 =        -0.0026496374
>12 8 9 9 =        -0.0500463261
>12 8 10 0 =        -0.0008608902
>12 8 10 1 =         0.0097615818
>12 8 10 2 =        -0.0012288017
>12 8 10 5 =         0.0066476507
>12 8 10 6 =         0.0222865362
>12 8 10 7 =        -0.0047325887
>12 8 10 8 =         0.0083417232
>12 8 10 9 =         0.0106418082
>12 8 10 10 =        -0.0552360573
>12 8 11 0 =        -0.0006891606
>12 8 11 1 =        -0.0016530265
>12 8 11 2 =        -0.0047090103
>12 8 11 5 =        -0.0002285676
>12 8 11 6 =         0.0030897255
>12 8 11 7 =         0.0003849383
>12 8 11 8 =         0.0061979388
>12 8 11 9 =        -0.0239306774
>12 8 11 10 =        -0.0060182471
>12 8 11 11 =        -0.0358541831
>12 8 12 0 =        -0.0002124375
[...]
     6        -0.208236327082937    6.141e-05    0.005652    0.012111    0.012111    0.122849
     7        -0.208235771582433    1.504e-05    0.005656    0.012129    0.012129    0.122847
     8        -0.208235763238281    2.790e-06    0.005656    0.012131    0.012131    0.122847
     9        -0.208235690208804    6.564e-07    0.005656    0.012131    0.012131    0.122847
    10        -0.208235709063786    1.384e-07    0.005656    0.012131    0.012131    0.122847
    11        -0.208235707624326    2.706e-08    0.005656    0.012131    0.012131    0.122847
    12        -0.208235707970053    4.379e-09    0.005656    0.012131    0.012131    0.122847

	Iterations converged.


	Largest TIA Amplitudes:
	          2   0         0.0104323167
	          3  11        -0.0065456065
	          4  14        -0.0062450427
	          4  18         0.0052212205
	          4  16         0.0045986039
	          1   2         0.0042996553
	          2   5         0.0039394161
	          1   0        -0.0029165695
	          1   7         0.0023786969
	          2   1         0.0022535272

	Largest TIjAb Amplitudes:
	  3   3  11  11        -0.0518796276
	  4   4  14  14        -0.0379246355
	  2   2   2   2        -0.0294934799
	  4   4  15  15        -0.0286548832
	  2   3   2  11         0.0249912266
	  3   2  11   2         0.0249912266
	  3   4  11  16        -0.0247855674
	  4   3  16  11        -0.0247855674
	  4   4  16  16        -0.0246442493
	  3   4  11  14        -0.0242043999

	SCF energy       (chkpt)              =  -76.022942727442555
	Reference energy (file100)            =  -76.022942727442484

	Opposite-spin MP2 correlation energy  =   -0.149329780468451
	Same-spin MP2 correlation energy      =   -0.050174225878919
	MP2 correlation energy                =   -0.199504006347370
      * MP2 total energy                      =  -76.222446733789852

	Opposite-spin CCSD correlation energy =   -0.163672921201436
	Same-spin CCSD correlation energy     =   -0.044562786768552
	CCSD correlation energy               =   -0.208235707970053
      * CCSD total energy                     =  -76.231178435412531


*** tstop() called on Marks-MacBook-Pro-3.local at Thu Dec 12 18:29:07 2013
Module time:
	user time   =       0.15 seconds =       0.00 minutes
	system time =       0.21 seconds =       0.00 minutes
	total time  =          2 seconds =       0.03 minutes
Total time:
	user time   =       1.19 seconds =       0.02 minutes
	system time =       0.94 seconds =       0.02 minutes
	total time  =          8 seconds =       0.13 minutes

*** tstart() called on Marks-MacBook-Pro-3.local
*** at Thu Dec 12 18:29:07 2013


			**************************
			*                        *
			*         CCHBAR         *
			*                        *
			**************************


*** tstop() called on Marks-MacBook-Pro-3.local at Thu Dec 12 18:29:07 2013
Module time:
	user time   =       0.01 seconds =       0.00 minutes
	system time =       0.02 seconds =       0.00 minutes
	total time  =          0 seconds =       0.00 minutes
Total time:
	user time   =       1.20 seconds =       0.02 minutes
	system time =       0.96 seconds =       0.02 minutes
	total time  =          8 seconds =       0.13 minutes

*** tstart() called on Marks-MacBook-Pro-3.local
*** at Thu Dec 12 18:29:07 2013


			**************************
			*        CCLAMBDA        *
			**************************


	Nuclear Rep. energy (chkpt)   =    9.166023984570183
	Reference           (chkpt)   = 0
	SCF energy          (chkpt)   =  -76.022942727442555
	Reference energy    (CC_INFO) =  -76.022942727442484
	CCSD energy         (CC_INFO) =   -0.208235707970053
	Total CCSD energy   (CC_INFO) =  -76.231178435412531

	Input parameters:
	-----------------
	Maxiter       =      50
	Convergence   = 1.0e-07
	Restart       =     No
	Cache Level   =     2
	Model III     =     No
	DIIS          =     Yes
	AO Basis      =     No
	ABCD            =     NEW
	Local CC        =     No
	Paramaters for left-handed eigenvectors:
	    Irr   Root  Ground-State?    EOM energy        R0
	  1   0     0        Yes       0.0000000000   1.0000000000
	Labels for eigenvector 1:
	LIA 0 -1, Lia 0 -1, LIJAB 0 -1, Lijab 0 -1, LIjAb 0 -1, 2LIjAb - LIjbA 0 -1
	Symmetry of left-hand state: A1
	Symmetry of left-hand eigenvector: A1

	          Solving Lambda Equations
	          ------------------------
	Iter     PseudoEnergy or Norm         RMS  
	----     ---------------------     --------
	   0        -0.208272250499025    8.424e-08
	   1        -0.205791571718279    7.966e-03
	   2        -0.205370449813225    1.311e-03
	   3        -0.205287149764053    6.018e-04
	   4        -0.205280812270316    1.995e-04
	   5        -0.205284337762276    6.063e-05
	   6        -0.205284319193188    1.453e-05
	   7        -0.205284399254875    3.249e-06
	   8        -0.205284427357575    4.934e-07
	   9        -0.205284425399361    8.358e-08

	Largest LIA Amplitudes:
	          2   0         0.0069443477
	          4  16         0.0048125197
	          4  18         0.0045116185
	          3  11        -0.0038738410
	          2   5         0.0035067223
	          1   2         0.0031832274
	          4  14        -0.0031482603
	          1   3        -0.0024367340
	          1   7         0.0021847180
	          4  15        -0.0020294268

	Largest LIjAb Amplitudes:
	  3   3  11  11        -0.0515962965
	  4   4  14  14        -0.0370577347
	  2   2   2   2        -0.0291206211
	  4   4  15  15        -0.0279479975
	  2   3   2  11         0.0248383034
	  3   2  11   2         0.0248383034
	  3   4  11  16        -0.0245997973
	  4   3  16  11        -0.0245997973
	  4   4  16  16        -0.0243928874
	  3   4  11  14        -0.0239471063

	Iterations converged.

	Overlap <L|e^T> =        0.94348490439

*** tstop() called on Marks-MacBook-Pro-3.local at Thu Dec 12 18:29:08 2013
Module time:
	user time   =       0.04 seconds =       0.00 minutes
	system time =       0.04 seconds =       0.00 minutes
	total time  =          1 seconds =       0.02 minutes
Total time:
	user time   =       1.24 seconds =       0.02 minutes
	system time =       1.00 seconds =       0.02 minutes
	total time  =          9 seconds =       0.15 minutes

*** tstart() called on Marks-MacBook-Pro-3.local
*** at Thu Dec 12 18:29:08 2013


			**************************
			*                        *
			*        CCDENSITY       *
			*                        *
			**************************


	Input parameters:
	-----------------
	Wave function    =   CCSD
	Reference wfn    =   RHF
	Dertype          = 1
	Tolerance        = 1.0e-14
	Cache Level      = 2
	AO Basis         = No
	OPDM Only        = No
	Relax OPDM       = Yes
	Compute Xi       = No
	Use Zeta         = No
	Xi connected     = Yes

	Nuclear Rep. energy (chkpt)   =    9.166023984570183
	SCF energy          (chkpt)   =  -76.022942727442555
	Reference energy    (file100) =  -76.022942727442484
	CCSD energy         (CC_INFO) =   -0.208235707970053
	Total CCSD energy   (CC_INFO) =  -76.231178435412531
	Number of States = 1

	Ground?  State     EOM Energy       R0
	  Yes     0 A1    0.0000000000   1.00000000

	Energies re-computed from CC density:
	-------------------------------------
	One-electron energy        =    0.220328521697912
	IJKL energy                =    0.041592574362940
	IJKA energy                =   -0.001379373888583
	IJAB energy                =   -0.410744547710781
	IBJA energy                =   -0.100141808001365
	CIAB energy                =   -0.000149333708588
	ABCD energy                =    0.042258259182900
	Total two-electron energy  =   -0.428564229763478
	CCSD correlation energy    =   -0.208235708065566
	Total CCSD energy          =  -76.231178435508056

	Virial Theorem Data:
	--------------------
	Kinetic energy (ref)   =   75.798953230861343
	Kinetic energy (corr)  =    0.147421650191672
	Kinetic energy (total) =   75.946374881053018
	-V/T (ref)             =    2.002955047359281
	-V/T (corr)            =    2.412517820139126
	-V/T (total)           =    2.003750061208393

	Energies re-computed from Fock-adjusted CC density:
	---------------------------------------------------
	One-electron energy        =    0.246470717492663
	IJKL energy                =   -0.666215042334529
	IJKA energy                =   -0.047742717630407
	IJAB energy                =   -0.410744547710781
	IBJA energy                =    0.627886956645002
	CIAB energy                =   -0.000149333708588
	ABCD energy                =    0.042258259182900
	Total two-electron energy  =   -0.454706425556402
	CCSD correlation energy    =   -0.208235708063739
	Total CCSD energy          =  -76.231178435506223

	Energies re-computed from Mulliken density:
	-------------------------------------------
	One-electron energy        =    0.246470717492663
	IJKL energy                =   -0.666215042334529
	IJKA energy                =   -0.047742717630407
	IJAB energy                =   -0.379840536527313
	IBJA energy                =    0.596982945461534
	CIAB energy                =   -0.000149333708588
	ABCD energy                =    0.042258259182900
	Total two-electron energy  =   -0.454706425556402
	CCSD correlation energy    =   -0.208235708063739
	Total CCSD energy          =  -76.231178435506223
  ==> Properties: Root 0 <==



Properties will be evaluated at   0.000000,   0.000000,   0.000000 Bohr
  Alpha electrons per irrep (n = 4): 3  0  1  1  
  Beta electrons per irrep (n = 4): 3  0  1  1  
  Doubly occupied orbitals per irrep (n = 4): 3  0  1  1  
  Singly occupied orbitals per irrep (n = 4): 0  0  0  0  

CC Density OPDM (Spin densities are not correct)


Properties computed using the SCF density density matrix
  Nuclear Dipole Moment: (a.u.)
     X:     0.0000      Y:     0.0000      Z:     0.9826

  Electronic Dipole Moment: (a.u.)
     X:     0.0000      Y:     0.0000      Z:    -0.1586

  Dipole Moment: (a.u.)
     X:     0.0000      Y:     0.0000      Z:     0.8240     Total:     0.8240

  Dipole Moment: (Debye)
     X:     0.0000      Y:     0.0000      Z:     2.0944     Total:     2.0944

  Quadrupole Moment: (Debye Ang)
    XX:    -7.2281     YY:    -4.2858     ZZ:    -5.8153
    XY:     0.0000     XZ:     0.0000     YZ:     0.0000

  Traceless Quadrupole Moment: (Debye Ang)
    XX:    -1.4517     YY:     1.4906     ZZ:    -0.0389
    XY:     0.0000     XZ:     0.0000     YZ:     0.0000

  Mulliken Charges: (a.u.)
   Center  Symbol    Alpha    Beta     Spin     Total
       1     O     4.31608  4.31608  0.00000 -0.63215
       2     H     0.34196  0.34196  0.00000  0.31608
       3     H     0.34196  0.34196  0.00000  0.31608

   Total alpha =  5.00000, Total beta =  5.00000, Total charge = -0.00000

  Natural Orbital Occupations:

  Total Occupations:
  HONO-2 :    1 B1    1.972
  HONO-1 :    3 A1    1.966
  HONO-0 :    1 B2    1.965
  LUNO+0 :    2 B2    0.027
  LUNO+1 :    4 A1    0.025
  LUNO+2 :    2 B1    0.017
  LUNO+3 :    5 A1    0.011


*** tstop() called on Marks-MacBook-Pro-3.local at Thu Dec 12 18:29:08 2013
Module time:
	user time   =       0.03 seconds =       0.00 minutes
	system time =       0.03 seconds =       0.00 minutes
	total time  =          0 seconds =       0.00 minutes
Total time:
	user time   =       1.27 seconds =       0.02 minutes
	system time =       1.03 seconds =       0.02 minutes
	total time  =          9 seconds =       0.15 minutes

*** tstart() called on Marks-MacBook-Pro-3.local
*** at Thu Dec 12 18:29:08 2013

 DERIV: Derivative code.
   by Justin Turney

  Cartesian Displacement SALCs
  By SALC:
  Number of SALCs: 3, nirreps: 1
  Project out translations: False
  Project out rotations: False
	irrep = 0, ncomponent = 1
		0: atom 0, direction z, coef 1.000000
	irrep = 0, ncomponent = 2
		0: atom 1, direction y, coef 0.707107
		1: atom 2, direction y, coef -0.707107
	irrep = 0, ncomponent = 2
		0: atom 1, direction z, coef 0.707107
		1: atom 2, direction z, coef 0.707107

  By Atomic Center:
  Number of atomic centers: 3
   Atomic Center 0:
	x component, size = 0
	y component, size = 0
	z component, size = 1
		0: salc 0, irrep 0, coef 1.000000
   Atomic Center 1:
	x component, size = 0
	y component, size = 1
		0: salc 1, irrep 0, coef 0.707107
	z component, size = 1
		0: salc 2, irrep 0, coef 0.707107
   Atomic Center 2:
	x component, size = 0
	y component, size = 1
		0: salc 1, irrep 0, coef -0.707107
	z component, size = 1
		0: salc 2, irrep 0, coef 0.707107

    Molecular point group: c2v
    Full point group: C2v

    Geometry (in Bohr), charge = 0, multiplicity = 1:

       Center              X                  Y                   Z       
    ------------   -----------------  -----------------  -----------------
           O          0.000000000000     0.000000000000    -0.124847178493
           H          0.000000000000    -1.431365047616     0.990707661026
           H          0.000000000000     1.431365047616     0.990707661026

	Presorting MO-basis TPDM.
	Sorting File: MO TPDM (AA|AA) nbuckets = 1
	Starting first half-transformation.
	Sorting half-transformed TPDM.
	First half integral transformation complete.


  -Nuclear Repulsion Energy 1st Derivatives:
     Atom            X                  Y                   Z
    ------   -----------------  -----------------  -----------------
       1        0.000000000000     0.000000000000     2.986552799812
       2        0.000000000000     2.038040737747    -1.493276399906
       3        0.000000000000    -2.038040737747    -1.493276399906


  -One-electron contribution to gradient:
     Atom            X                  Y                   Z
    ------   -----------------  -----------------  -----------------
       1        0.000000000000     0.000000000000    -6.872925848007
       2        0.000000000000    -4.625842242771     3.436462924004
       3        0.000000000000     4.625842242771     3.436462924004


  -Lagrangian contribution to gradient:
     Atom            X                  Y                   Z
    ------   -----------------  -----------------  -----------------
       1        0.000000000000     0.000000000000     0.411353806710
       2        0.000000000000     0.252558749251    -0.205676903355
       3        0.000000000000    -0.252558749251    -0.205676903355


  -Two-electron contribution to gradient:
     Atom            X                  Y                   Z
    ------   -----------------  -----------------  -----------------
       1        0.000000000000     0.000000000000     3.475093979301
       2        0.000000000000     2.335175546270    -1.737546989650
       3        0.000000000000    -2.335175546270    -1.737546989650


  -Total gradient:
     Atom            X                  Y                   Z
    ------   -----------------  -----------------  -----------------
       1        0.000000000000     0.000000000000     0.000074737815
       2        0.000000000000    -0.000067209503    -0.000037368908
       3        0.000000000000     0.000067209503    -0.000037368908


*** tstop() called on Marks-MacBook-Pro-3.local at Thu Dec 12 18:29:08 2013
Module time:
	user time   =       0.08 seconds =       0.00 minutes
	system time =       0.01 seconds =       0.00 minutes
	total time  =          0 seconds =       0.00 minutes
Total time:
	user time   =       1.35 seconds =       0.02 minutes
	system time =       1.04 seconds =       0.02 minutes
	total time  =          9 seconds =       0.15 minutes

			-----------------------------------------
			 OPTKING 2.0: for geometry optimizations 
			  - R.A. King,  Bethel University        
			-----------------------------------------

	Previous internal coordinate definitions found.
	---Fragment 1 Geometry and Gradient---
	 O           0.0000000000        0.0000000000       -0.1248471785
	 H           0.0000000000       -1.4313650476        0.9907076610
	 H           0.0000000000        1.4313650476        0.9907076610
	             0.0000000000        0.0000000000        0.0000747378
	             0.0000000000       -0.0000672095       -0.0000373689
	             0.0000000000        0.0000672095       -0.0000373689

	---Fragment 1 Intrafragment Coordinates---
	 - Coordinate -           - BOHR/RAD -       - ANG/DEG -
	 R(1,2)           =         1.814736	       0.960317
	 R(1,3)           =         1.814736	       0.960317
	 B(2,1,3)         =         1.817531	     104.136842

	Current energy   :       -76.2311784354

	Energy change for the previous step:
		Projected    :        -0.0000038376
		Actual       :        -0.0000034299
	Energy ratio indicates good step: Trust radius increased to 1.000e+00.


	Performing BFGS update with previous 1 gradient(s).
	Going to follow RFO solution 1.
	Projected energy change by RFO approximation:        -0.0000000485

	Back-transformation to cartesian coordinates...
	Successfully converged to displaced geometry.

	---Internal Coordinate Step in ANG or DEG, aJ/ANG or AJ/DEG ---
	 ----------------------------------------------------------------------
	 Coordinate             Previous        Force       Change         New 
	 ----------             --------       ------       ------       ------
	 R(1,2)          =      0.960317    -0.000247    -0.000010     0.960308
	 R(1,3)          =      0.960317    -0.000247    -0.000010     0.960308
	 B(2,1,3)        =    104.136842    -0.000010    -0.042734   104.094108
	 ----------------------------------------------------------------------

  ==> Convergence Check <==

  Measures of convergence in internal coordinates in au.
  Criteria marked as inactive (o), active & met (*), and active & unmet ( ).
  ---------------------------------------------------------------------------------------------
   Step     Total Energy     Delta E     MAX Force     RMS Force      MAX Disp      RMS Disp   
  ---------------------------------------------------------------------------------------------
    Convergence Criteria    1.00e-06 *    3.00e-04 *             o    1.20e-03 *             o
  ---------------------------------------------------------------------------------------------
      3     -76.23117844   -3.43e-06      1.28e-04 *    7.81e-05 o    7.46e-04 *    4.31e-04 o  ~
  ---------------------------------------------------------------------------------------------


  **** Optimization is complete! ****

  ==> Optimization Summary <==

  Measures of convergence in internal coordinates in au.
  --------------------------------------------------------------------------------------------------------------- ~
   Step         Total Energy             Delta E       MAX Force       RMS Force        MAX Disp        RMS Disp  ~
  --------------------------------------------------------------------------------------------------------------- ~
      1     -76.230988854472    -76.230988854472      0.00916168      0.00757669      0.01715315      0.01589026  ~
      2     -76.231175005465     -0.000186150994      0.00097714      0.00066579      0.00684009      0.00405823  ~
      3     -76.231178435413     -0.000003429947      0.00012846      0.00007812      0.00074585      0.00043087  ~
  --------------------------------------------------------------------------------------------------------------- ~

	Writing optimization data to binary file.
	Final energy is    -76.2311784354125
	Final (previous) structure:
	Cartesian Geometry (in Angstrom)
	    O     0.0000000000   0.0000000000  -0.0660662865
	    H     0.0000000000  -0.7574458182   0.5242599546
	    H     0.0000000000   0.7574458182   0.5242599546
	Saving final (previous) structure.
			--------------------------
			 OPTKING Finished Execution 
			--------------------------

    Final optimized geometry and variables:
    Molecular point group: c2v
    Full point group: C2v

    Geometry (in Angstrom), charge = 0, multiplicity = 1:

    O       
    H             1    0.960317
    H             1    0.960317      2  104.136842


*** PSI4 exiting successfully. Buy a developer a beer!
