    -----------------------------------------------------------------------
          PSI4: An Open-Source Ab Initio Electronic Structure Package
                              PSI 4.0.0-beta5 Driver

    J. M. Turney, A. C. Simmonett, R. M. Parrish, E. G. Hohenstein,
    F. A. Evangelista, J. T. Fermann, B. J. Mintz, L. A. Burns, J. J. Wilke,
    M. L. Abrams, N. J. Russ, M. L. Leininger, C. L. Janssen, E. T. Seidl,
    W. D. Allen, H. F. Schaefer, R. A. King, E. F. Valeev, C. D. Sherrill,
    and T. D. Crawford, WIREs Comput. Mol. Sci., (2011) (doi: 10.1002/wcms.93)

                         Additional Contributions by
    A. E. DePrince, M. Saitow, U. Bozkaya, A. Yu. Sokolov
    -----------------------------------------------------------------------

    Process ID:  21435
    PSI4DATADIR: /usr/local/psi4/share/psi

    Using LocalCommunicator (Number of processes = 1)

    Memory level set to 256.000 MB

  ==> Input File <==

--------------------------------------------------------------------------

# PYTHONPATH must include directory above plugin directory.
#     Define either externally or here, then import plugin.
sys.path.insert(0, './..')
import sointegrals

molecule {
O
H 1 R
H 1 R 2 A

R = .9
A = 104.5
}

set {
  basis 6-31G**
}

set sointegrals {
  print 1
  do_tei True
}

energy('sointegrals')

sointegrals.exampleFN()

--------------------------------------------------------------------------
/Users/markstrother/cs294_rebuilt/final_proj/cs294-davidson/sointegrals/sointegrals.so loaded.

*** tstart() called on 20-c9-d0-c5-6a-11.dhcp.lbnl.us
*** at Wed Dec 18 18:20:24 2013

	There are an even number of electrons - assuming singlet.
	Specify the multiplicity with the MULTP option in the
	input if this is incorrect


         ---------------------------------------------------------
                                   SCF
            by Justin Turney, Rob Parrish, and Andy Simmonett
                              RHF Reference
                        1 Threads,    256 MiB Core
         ---------------------------------------------------------

  ==> Geometry <==

    Molecular point group: c2v
    Full point group: C2v

    Geometry (in Angstrom), charge = 0, multiplicity = 1:

       Center              X                  Y                   Z       
    ------------   -----------------  -----------------  -----------------
           O          0.000000000000     0.000000000000    -0.061664597379
           H          0.000000000000    -0.711620616369     0.489330954652
           H          0.000000000000     0.711620616369     0.489330954652

  Running in c2v symmetry.

  Nuclear repulsion =    9.779406144413407

  Charge       = 0
  Multiplicity = 1
  Electrons    = 10
  Nalpha       = 5
  Nbeta        = 5

  ==> Algorithm <==

  SCF Algorithm Type is PK.
  DIIS enabled.
  MOM disabled.
  Fractional occupation disabled.
  Guess Type is CORE.
  Energy threshold   = 1.00e-08
  Density threshold  = 1.00e-08
  Integral threshold = 0.00e+00

  ==> Primary Basis <==

  Basis Set: STO-3G
    Number of shells: 5
    Number of basis function: 7
    Number of Cartesian functions: 7
    Spherical Harmonics?: true
    Max angular momentum: 1

  ==> Pre-Iterations <==

   -------------------------------------------------------
    Irrep   Nso     Nmo     Nalpha   Nbeta   Ndocc  Nsocc
   -------------------------------------------------------
     A1         4       4       0       0       0       0
     A2         0       0       0       0       0       0
     B1         1       1       0       0       0       0
     B2         2       2       0       0       0       0
   -------------------------------------------------------
    Total       7       7       5       5       5       0
   -------------------------------------------------------

  Starting with a DF guess...

 OEINTS: Wrapper to libmints.
   by Justin Turney

   Calculation information:
      Number of atoms:                   3
      Number of AO shells:               5
      Number of SO shells:               4
      Number of primitives:             15
      Number of atomic orbitals:         7
      Number of basis functions:         7

      Number of irreps:                  4
      Number of functions per irrep: [   4    0    1    2 ]

      Overlap, kinetic, potential, dipole, and quadrupole integrals
        stored in file 35.

  ==> Integral Setup <==

  ==> DFJK: Density-Fitted J/K Matrices <==

    J tasked:                  Yes
    K tasked:                  Yes
    wK tasked:                  No
    OpenMP threads:              1
    Integrals threads:           1
    Memory (MB):               183
    Algorithm:                Core
    Integral Cache:           NONE
    Schwarz Cutoff:          1E-12
    Fitting Condition:       1E-12

   => Auxiliary Basis Set <=

  Basis Set: CC-PVDZ-JKFIT
    Number of shells: 42
    Number of basis function: 116
    Number of Cartesian functions: 131
    Spherical Harmonics?: true
    Max angular momentum: 3

  Minimum eigenvalue in the overlap matrix is 3.0451397022E-01.
  Using Symmetric Orthogonalization.
  SCF Guess: Core (One-Electron) Hamiltonian.

  ==> Iterations <==

                           Total Energy        Delta E     RMS |[F,P]|

   @DF-RHF iter   1:   -73.19700007804599   -7.31970e+01   2.46163e-01 
   @DF-RHF iter   2:   -74.93914529148194   -1.74215e+00   1.91119e-02 DIIS
   @DF-RHF iter   3:   -74.94460396321236   -5.45867e-03   4.48157e-03 DIIS
   @DF-RHF iter   4:   -74.94503022571695   -4.26263e-04   8.44127e-04 DIIS
   @DF-RHF iter   5:   -74.94505038727539   -2.01616e-05   1.60329e-04 DIIS
   @DF-RHF iter   6:   -74.94505106082536   -6.73550e-07   1.07647e-05 DIIS
   @DF-RHF iter   7:   -74.94505106261747   -1.79210e-09   4.99723e-08 DIIS
   @DF-RHF iter   8:   -74.94505106261744    2.84217e-14   5.08049e-10 DIIS

  DF guess converged.

  ==> Integral Setup <==

 MINTS: Wrapper to libmints.
   by Justin Turney

   Calculation information:
      Number of atoms:                   3
      Number of AO shells:               5
      Number of SO shells:               4
      Number of primitives:             15
      Number of atomic orbitals:         7
      Number of basis functions:         7

      Number of irreps:                  4
      Integral cutoff                 0.00e+00
      Number of functions per irrep: [   4    0    1    2 ]

      Overlap, kinetic, potential, dipole, and quadrupole integrals
        stored in file 35.

      Computing two-electron integrals...done
      Computed 138 non-zero two-electron integrals.
        Stored in file 33.

	Batch   1 pq = [       0,      14] index = [             0,105]
  ==> DiskJK: Disk-Based J/K Matrices <==

    J tasked:                  Yes
    K tasked:                  Yes
    wK tasked:                  No
    Memory (MB):               183
    Schwarz Cutoff:          1E-12

   @RHF iter   9:   -74.94502101037963    3.00522e-05   2.71425e-06 DIIS
   @RHF iter  10:   -74.94502101052157   -1.41938e-10   8.38641e-07 DIIS
   @RHF iter  11:   -74.94502101053737   -1.58025e-11   1.48869e-07 DIIS
   @RHF iter  12:   -74.94502101053806   -6.82121e-13   3.74363e-08 DIIS
   @RHF iter  13:   -74.94502101053811   -5.68434e-14   4.11745e-10 DIIS

  ==> Post-Iterations <==

	Orbital Energies (a.u.)
	-----------------------

	Doubly Occupied:                                                      

	   1A1   -20.236192     2A1    -1.300480     1B2    -0.649309  
	   3A1    -0.460194     1B1    -0.396298  

	Virtual:                                                              

	   4A1     0.664827     2B2     0.813314  

	Final Occupation by Irrep:
	         A1    A2    B1    B2 
	DOCC [     3,    0,    1,    1 ]

  Energy converged.

  @RHF Final Energy:   -74.94502101053811

   => Energetics <=

    Nuclear Repulsion Energy =              9.7794061444134073
    One-Electron Energy =                -123.3639077707138512
    Two-Electron Energy =                  38.6394806157623094
    DFT Exchange-Correlation Energy =       0.0000000000000000
    Empirical Dispersion Energy =           0.0000000000000000
    Total Energy =                        -74.9450210105381274



Properties will be evaluated at   0.000000,   0.000000,   0.000000 Bohr
  ==> Properties <==


Properties computed using the SCF density density matrix
  Nuclear Dipole Moment: (a.u.)
     X:     0.0000      Y:     0.0000      Z:     0.9172

  Electronic Dipole Moment: (a.u.)
     X:     0.0000      Y:     0.0000      Z:    -0.2095

  Dipole Moment: (a.u.)
     X:     0.0000      Y:     0.0000      Z:     0.7076     Total:     0.7076

  Dipole Moment: (Debye)
     X:     0.0000      Y:     0.0000      Z:     1.7986     Total:     1.7986


  Saving occupied orbitals to File 180.

*** tstop() called on 20-c9-d0-c5-6a-11.dhcp.lbnl.us at Wed Dec 18 18:20:24 2013
Module time:
	user time   =       0.08 seconds =       0.00 minutes
	system time =       0.01 seconds =       0.00 minutes
	total time  =          0 seconds =       0.00 minutes
Total time:
	user time   =       0.08 seconds =       0.00 minutes
	system time =       0.01 seconds =       0.00 minutes
	total time  =          0 seconds =       0.00 minutes
Reading options from the SOINTEGRALS block
Calling plugin sointegrals.so.
    Molecular point group: c2v
    Full point group: C2v

    Geometry (in Angstrom), charge = 0, multiplicity = 1:

       Center              X                  Y                   Z       
    ------------   -----------------  -----------------  -----------------
           O          0.000000000000     0.000000000000    -0.061664597379
           H          0.000000000000    -0.711620616369     0.489330954652
           H          0.000000000000     0.711620616369     0.489330954652

  ## One Electron Ints (Symmetry 0) ##
  Irrep: 1 Size: 4 x 4

                 1            2            3            4

    1  -32.7912043   -7.6294422   -0.0215004   -2.8375326
    2   -7.6294422   -9.3975512   -0.2467923   -5.8319404
    3   -0.0215004   -0.2467923   -7.6157541   -2.4969799
    4   -2.8375326   -5.8319404   -2.4969799   -7.2186657



  Irrep: 2 Size: 0 x 0

	(empty)

  Irrep: 3 Size: 1 x 1

                 1

    1   -7.5087201



  Irrep: 4 Size: 2 x 2

                 1            2

    1   -7.6872548    3.0666470
    2    3.0666470   -3.4334889



	( 0  0 |  0  0) =         4.7850654047
	( 1  0 |  0  0) =         0.7413803520
	( 1  1 |  0  0) =         1.1189468663
	( 1  0 |  1  0) =         0.1368733854
	( 1  1 |  1  0) =         0.2566333947
	( 1  1 |  1  1) =         0.8172063215
	( 2  2 |  0  0) =         1.1158138122
	( 4  4 |  0  0) =         1.1158138122
	( 5  5 |  0  0) =         1.1158138122
	( 2  0 |  2  0) =         0.0244774123
	( 4  0 |  4  0) =         0.0244774123
	( 5  0 |  5  0) =         0.0244774123
	( 2  2 |  1  0) =         0.2566839858
	( 4  4 |  1  0) =         0.2566839858
	( 5  5 |  1  0) =         0.2566839858
	( 2  1 |  2  0) =         0.0378086074
	( 4  1 |  4  0) =         0.0378086074
	( 5  1 |  5  0) =         0.0378086074
	( 2  2 |  1  1) =         0.8170226053
	( 4  4 |  1  1) =         0.8170226053
	( 5  5 |  1  1) =         0.8170226053
	( 2  1 |  2  1) =         0.1805183921
	( 4  1 |  4  1) =         0.1805183921
	( 5  1 |  5  1) =         0.1805183921
	( 2  2 |  2  2) =         0.8801590934
	( 4  2 |  4  2) =         0.0474444451
	( 4  4 |  2  2) =         0.7852702031
	( 4  4 |  4  4) =         0.8801590934
	( 5  2 |  5  2) =         0.0474444451
	( 5  4 |  5  4) =         0.0474444451
	( 5  5 |  2  2) =         0.7852702031
	( 5  5 |  4  4) =         0.7852702031
	( 5  5 |  5  5) =         0.8801590934
	( 3  0 |  0  0) =         0.2785848686
	( 3  1 |  0  0) =         0.6291747109
	( 3  0 |  1  0) =         0.0509457497
	( 3  1 |  1  0) =         0.1458970119
	( 3  0 |  1  1) =         0.0947349458
	( 3  1 |  1  1) =         0.5087386155
	( 3  2 |  0  0) =         0.2643389788
	( 6  5 |  0  0) =        -0.3413985218
	( 3  0 |  2  0) =         0.0014196585
	( 6  0 |  5  0) =        -0.0018335143
	( 3  2 |  1  0) =         0.0621363944
	( 6  5 |  1  0) =        -0.0802502654
	( 3  1 |  2  0) =         0.0066294841
	( 6  1 |  5  0) =        -0.0085620974
	( 3  0 |  2  1) =         0.0026437396
	( 6  0 |  5  1) =        -0.0034144371
	( 3  2 |  1  1) =         0.2314976245
	( 6  5 |  1  1) =        -0.2989833250
	( 3  1 |  2  1) =         0.0490917179
	( 6  1 |  5  1) =        -0.0634028322
	( 3  2 |  2  0) =         0.0183455775
	( 6  2 |  5  0) =        -0.0032312272
	( 4  3 |  4  0) =         0.0158436940
	( 5  3 |  5  0) =         0.0200168818
	( 6  5 |  2  0) =        -0.0032312272
	( 3  0 |  2  2) =         0.0947607481
	( 4  4 |  3  0) =         0.0945599249
	( 5  5 |  3  0) =         0.0948949018
	( 6  0 |  5  2) =        -0.0002593669
	( 3  2 |  2  1) =         0.1115066266
	( 6  2 |  5  1) =        -0.0276497413
	( 4  3 |  4  1) =         0.0900979095
	( 5  3 |  5  1) =         0.1258080452
	( 6  5 |  2  1) =        -0.0276497413
	( 3  1 |  2  2) =         0.5095853288
	( 4  4 |  3  1) =         0.5005334196
	( 5  5 |  3  1) =         0.5156321715
	( 6  1 |  5  2) =        -0.0116907028
	( 3  2 |  2  2) =         0.2457198452
	( 4  4 |  3  2) =         0.2208245205
	( 5  5 |  3  2) =         0.2276983516
	( 6  2 |  5  2) =        -0.0187375231
	( 4  3 |  4  2) =         0.0103871843
	( 6  4 |  5  4) =        -0.0134152344
	( 5  3 |  5  2) =         0.0172610154
	( 6  5 |  2  2) =        -0.2905211089
	( 6  5 |  4  4) =        -0.2851988202
	( 6  5 |  5  5) =        -0.3209069648
	( 3  3 |  0  0) =         0.7502083977
	( 6  6 |  0  0) =         0.3702516951
	( 3  0 |  3  0) =         0.0190588422
	( 6  0 |  6  0) =         0.0001453886
	( 3  3 |  1  0) =         0.1764276151
	( 6  6 |  1  0) =         0.0875910056
	( 3  1 |  3  0) =         0.0543602609
	( 6  1 |  6  0) =         0.0008465850
	( 3  3 |  1  1) =         0.6910086396
	( 6  6 |  1  1) =         0.3575122252
	( 3  1 |  3  1) =         0.3483321924
	( 6  1 |  6  1) =         0.0327824741
	( 3  3 |  2  0) =         0.0115383149
	( 6  3 |  5  0) =        -0.0107085051
	( 6  6 |  2  0) =         0.0050445062
	( 3  2 |  3  0) =         0.0242547930
	( 6  5 |  3  0) =        -0.0298988407
	( 6  2 |  6  0) =         0.0003737696
	( 6  0 |  5  3) =        -0.0019093887
	( 3  3 |  2  1) =         0.1103716398
	( 6  3 |  5  1) =        -0.1064195872
	( 6  6 |  2  1) =         0.0544260568
	( 3  2 |  3  1) =         0.1902238122
	( 6  5 |  3  1) =        -0.2129728397
	( 6  2 |  6  1) =         0.0204576350
	( 6  1 |  5  3) =        -0.0591260199
	( 3  3 |  2  2) =         0.6974813084
	( 4  4 |  3  3) =         0.6659251194
	( 5  5 |  3  3) =         0.7088305397
	( 6  3 |  5  2) =        -0.0307229070
	( 6  6 |  2  2) =         0.3558939835
	( 6  6 |  4  4) =         0.3398737400
	( 6  6 |  5  5) =         0.3763266882
	( 3  2 |  3  2) =         0.1536379105
	( 6  2 |  6  2) =         0.0181927667
	( 6  2 |  5  3) =        -0.0340734747
	( 4  3 |  4  3) =         0.0510343666
	( 6  4 |  6  4) =         0.0055361446
	( 5  3 |  5  3) =         0.1093396506
	( 6  5 |  3  2) =        -0.1147870925
	( 6  5 |  6  5) =         0.1394869472
	( 3  3 |  3  0) =         0.0660235068
	( 6  3 |  6  0) =         0.0011028815
	( 6  6 |  3  0) =         0.0327404229
	( 3  3 |  3  1) =         0.5278216335
	( 6  3 |  6  1) =         0.0735176904
	( 6  6 |  3  1) =         0.2817235482
	( 3  3 |  3  2) =         0.3257978384
	( 6  5 |  3  3) =        -0.3404085741
	( 6  3 |  6  2) =         0.0530555004
	( 6  3 |  5  3) =        -0.1254491901
	( 6  6 |  3  2) =         0.1728463668
	( 6  6 |  6  5) =        -0.1897452173
	( 3  3 |  3  3) =         0.9296264718
	( 6  3 |  6  3) =         0.2061452542
	( 6  6 |  3  3) =         0.5211354211
	( 6  6 |  6  6) =         0.3019454449

*** PSI4 exiting successfully. Buy a developer a beer!
